V -t * -v 1.0a5 -a 0
W -t * -x 60 -y 30
A -t * -n 1 -p 0 -o 0x7fffffff -c 30 -a 1
A -t * -h 1 -m 1073741823 -s 0
n -t * -a 0 -s 0 -S UP -v circle -c black -i black -x 30 -y 20
n -t * -a 1 -s 1 -S UP -v circle -c black -i black -x 10 -y 10
n -t * -a 2 -s 2 -S UP -v circle -c black -i black -x 10 -y 30
n -t * -a 3 -s 3 -S UP -v circle -c black -i black -x 20 -y 10
n -t * -a 4 -s 4 -S UP -v circle -c black -i black -x 20 -y 30
n -t * -a 5 -s 5 -S UP -v circle -c black -i black -x 40 -y 20
n -t * -a 6 -s 6 -S UP -v circle -c black -i black -x 50 -y 10
n -t * -a 7 -s 7 -S UP -v circle -c black -i black -x 50 -y 30
n -t * -a 8 -s 8 -S UP -v circle -c black -i black -x 60 -y 10
n -t * -a 9 -s 9 -S UP -v circle -c black -i black -x 60 -y 30
l -t * -s 0 -d 5 -S UP -r 1000000 -D 0.01 -c black
X -t * -n 10 -r 0.5Mb -D 40ms -o left
L -t * -s 10 -d 0 -o up
L -t * -s 10 -d 1 -o down
L -t * -s 10 -d 2 -o up
L -t * -s 10 -d 3 -o down
L -t * -s 10 -d 4 -o up
X -t * -n 11 -r 0.5Mb -D 40ms -o left
L -t * -s 11 -d 5 -o up
L -t * -s 11 -d 6 -o down
L -t * -s 11 -d 7 -o up
L -t * -s 11 -d 8 -o down
L -t * -s 11 -d 9 -o up
h -t 0.1 -s 1 -d 10 -p tcp -e 40 -c 1 -i 0 -a 1 -x {1.0 9.0 0 ------- null}
+ -t 0.14 -s 1 -d 10 -p tcp -e 40 -c 1 -i 0 -a 1 -x {1.0 9.0 0 ------- null}
- -t 0.14 -s 1 -d 10 -p tcp -e 40 -c 1 -i 0 -a 1 -x {1.0 9.0 0 ------- null}
h -t 0.14 -s 1 -d 10 -p tcp -e 40 -c 1 -i 0 -a 1 -x {1.0 9.0 -1 ------- null}
d -t 0.140004 -s 4 -d 10 -p tcp -e 40 -c 1 -i 0 -a 1 -x {1.0 9.0 0 ------- null}
d -t 0.140004 -s 3 -d 10 -p tcp -e 40 -c 1 -i 0 -a 1 -x {1.0 9.0 0 ------- null}
d -t 0.140004 -s 2 -d 10 -p tcp -e 40 -c 1 -i 0 -a 1 -x {1.0 9.0 0 ------- null}
r -t 0.180004 -s 10 -d 0 -p tcp -e 40 -c 1 -i 0 -a 1 -x {1.0 9.0 0 ------- null}
+ -t 0.180004 -s 0 -d 5 -p tcp -e 40 -c 1 -i 0 -a 1 -x {1.0 9.0 0 ------- null}
- -t 0.180004 -s 0 -d 5 -p tcp -e 40 -c 1 -i 0 -a 1 -x {1.0 9.0 0 ------- null}
h -t 0.180004 -s 0 -d 5 -p tcp -e 40 -c 1 -i 0 -a 1 -x {1.0 9.0 -1 ------- null}
r -t 0.190324 -s 0 -d 5 -p tcp -e 40 -c 1 -i 0 -a 1 -x {1.0 9.0 0 ------- null}
h -t 0.190324 -s 5 -d 11 -p tcp -e 40 -c 1 -i 0 -a 1 -x {1.0 9.0 0 ------- null}
+ -t 0.230324 -s 5 -d 11 -p tcp -e 40 -c 1 -i 0 -a 1 -x {1.0 9.0 0 ------- null}
- -t 0.230324 -s 5 -d 11 -p tcp -e 40 -c 1 -i 0 -a 1 -x {1.0 9.0 0 ------- null}
h -t 0.230324 -s 5 -d 11 -p tcp -e 40 -c 1 -i 0 -a 1 -x {1.0 9.0 -1 ------- null}
d -t 0.230328 -s 8 -d 11 -p tcp -e 40 -c 1 -i 0 -a 1 -x {1.0 9.0 0 ------- null}
d -t 0.230328 -s 7 -d 11 -p tcp -e 40 -c 1 -i 0 -a 1 -x {1.0 9.0 0 ------- null}
d -t 0.230328 -s 6 -d 11 -p tcp -e 40 -c 1 -i 0 -a 1 -x {1.0 9.0 0 ------- null}
r -t 0.270328 -s 11 -d 9 -p tcp -e 40 -c 1 -i 0 -a 1 -x {1.0 9.0 0 ------- null}
h -t 0.270328 -s 9 -d 11 -p ack -e 40 -c 1 -i 1 -a 1 -x {9.0 1.0 0 ------- null}
+ -t 0.310328 -s 9 -d 11 -p ack -e 40 -c 1 -i 1 -a 1 -x {9.0 1.0 0 ------- null}
- -t 0.310328 -s 9 -d 11 -p ack -e 40 -c 1 -i 1 -a 1 -x {9.0 1.0 0 ------- null}
h -t 0.310328 -s 9 -d 11 -p ack -e 40 -c 1 -i 1 -a 1 -x {9.0 1.0 -1 ------- null}
d -t 0.310332 -s 8 -d 11 -p ack -e 40 -c 1 -i 1 -a 1 -x {9.0 1.0 0 ------- null}
d -t 0.310332 -s 7 -d 11 -p ack -e 40 -c 1 -i 1 -a 1 -x {9.0 1.0 0 ------- null}
d -t 0.310332 -s 6 -d 11 -p ack -e 40 -c 1 -i 1 -a 1 -x {9.0 1.0 0 ------- null}
r -t 0.350332 -s 11 -d 5 -p ack -e 40 -c 1 -i 1 -a 1 -x {9.0 1.0 0 ------- null}
+ -t 0.350332 -s 5 -d 0 -p ack -e 40 -c 1 -i 1 -a 1 -x {9.0 1.0 0 ------- null}
- -t 0.350332 -s 5 -d 0 -p ack -e 40 -c 1 -i 1 -a 1 -x {9.0 1.0 0 ------- null}
h -t 0.350332 -s 5 -d 0 -p ack -e 40 -c 1 -i 1 -a 1 -x {9.0 1.0 -1 ------- null}
r -t 0.360652 -s 5 -d 0 -p ack -e 40 -c 1 -i 1 -a 1 -x {9.0 1.0 0 ------- null}
h -t 0.360652 -s 0 -d 10 -p ack -e 40 -c 1 -i 1 -a 1 -x {9.0 1.0 0 ------- null}
+ -t 0.400652 -s 0 -d 10 -p ack -e 40 -c 1 -i 1 -a 1 -x {9.0 1.0 0 ------- null}
- -t 0.400652 -s 0 -d 10 -p ack -e 40 -c 1 -i 1 -a 1 -x {9.0 1.0 0 ------- null}
h -t 0.400652 -s 0 -d 10 -p ack -e 40 -c 1 -i 1 -a 1 -x {9.0 1.0 -1 ------- null}
d -t 0.400656 -s 4 -d 10 -p ack -e 40 -c 1 -i 1 -a 1 -x {9.0 1.0 0 ------- null}
d -t 0.400656 -s 3 -d 10 -p ack -e 40 -c 1 -i 1 -a 1 -x {9.0 1.0 0 ------- null}
d -t 0.400656 -s 2 -d 10 -p ack -e 40 -c 1 -i 1 -a 1 -x {9.0 1.0 0 ------- null}
r -t 0.440656 -s 10 -d 1 -p ack -e 40 -c 1 -i 1 -a 1 -x {9.0 1.0 0 ------- null}
h -t 0.440656 -s 1 -d 10 -p tcp -e 1040 -c 1 -i 2 -a 1 -x {1.0 9.0 1 ------- null}
h -t 0.440656 -s 1 -d 10 -p tcp -e 1040 -c 1 -i 3 -a 1 -x {1.0 9.0 2 ------- null}
+ -t 0.480656 -s 1 -d 10 -p tcp -e 1040 -c 1 -i 2 -a 1 -x {1.0 9.0 1 ------- null}
- -t 0.480656 -s 1 -d 10 -p tcp -e 1040 -c 1 -i 2 -a 1 -x {1.0 9.0 1 ------- null}
h -t 0.480656 -s 1 -d 10 -p tcp -e 1040 -c 1 -i 2 -a 1 -x {1.0 9.0 -1 ------- null}
+ -t 0.480656 -s 1 -d 10 -p tcp -e 1040 -c 1 -i 3 -a 1 -x {1.0 9.0 2 ------- null}
d -t 0.48066 -s 4 -d 10 -p tcp -e 1040 -c 1 -i 2 -a 1 -x {1.0 9.0 1 ------- null}
d -t 0.48066 -s 3 -d 10 -p tcp -e 1040 -c 1 -i 2 -a 1 -x {1.0 9.0 1 ------- null}
d -t 0.48066 -s 2 -d 10 -p tcp -e 1040 -c 1 -i 2 -a 1 -x {1.0 9.0 1 ------- null}
- -t 0.485072 -s 1 -d 10 -p tcp -e 1040 -c 1 -i 3 -a 1 -x {1.0 9.0 2 ------- null}
h -t 0.485072 -s 1 -d 10 -p tcp -e 1040 -c 1 -i 3 -a 1 -x {1.0 9.0 -1 ------- null}
d -t 0.485076 -s 4 -d 10 -p tcp -e 1040 -c 1 -i 3 -a 1 -x {1.0 9.0 2 ------- null}
d -t 0.485076 -s 3 -d 10 -p tcp -e 1040 -c 1 -i 3 -a 1 -x {1.0 9.0 2 ------- null}
d -t 0.485076 -s 2 -d 10 -p tcp -e 1040 -c 1 -i 3 -a 1 -x {1.0 9.0 2 ------- null}
r -t 0.52066 -s 10 -d 0 -p tcp -e 1040 -c 1 -i 2 -a 1 -x {1.0 9.0 1 ------- null}
+ -t 0.52066 -s 0 -d 5 -p tcp -e 1040 -c 1 -i 2 -a 1 -x {1.0 9.0 1 ------- null}
- -t 0.52066 -s 0 -d 5 -p tcp -e 1040 -c 1 -i 2 -a 1 -x {1.0 9.0 1 ------- null}
h -t 0.52066 -s 0 -d 5 -p tcp -e 1040 -c 1 -i 2 -a 1 -x {1.0 9.0 -1 ------- null}
r -t 0.525076 -s 10 -d 0 -p tcp -e 1040 -c 1 -i 3 -a 1 -x {1.0 9.0 2 ------- null}
+ -t 0.525076 -s 0 -d 5 -p tcp -e 1040 -c 1 -i 3 -a 1 -x {1.0 9.0 2 ------- null}
- -t 0.52898 -s 0 -d 5 -p tcp -e 1040 -c 1 -i 3 -a 1 -x {1.0 9.0 2 ------- null}
h -t 0.52898 -s 0 -d 5 -p tcp -e 1040 -c 1 -i 3 -a 1 -x {1.0 9.0 -1 ------- null}
r -t 0.53898 -s 0 -d 5 -p tcp -e 1040 -c 1 -i 2 -a 1 -x {1.0 9.0 1 ------- null}
h -t 0.53898 -s 5 -d 11 -p tcp -e 1040 -c 1 -i 2 -a 1 -x {1.0 9.0 1 ------- null}
r -t 0.5473 -s 0 -d 5 -p tcp -e 1040 -c 1 -i 3 -a 1 -x {1.0 9.0 2 ------- null}
h -t 0.5473 -s 5 -d 11 -p tcp -e 1040 -c 1 -i 3 -a 1 -x {1.0 9.0 2 ------- null}
+ -t 0.57898 -s 5 -d 11 -p tcp -e 1040 -c 1 -i 2 -a 1 -x {1.0 9.0 1 ------- null}
- -t 0.57898 -s 5 -d 11 -p tcp -e 1040 -c 1 -i 2 -a 1 -x {1.0 9.0 1 ------- null}
h -t 0.57898 -s 5 -d 11 -p tcp -e 1040 -c 1 -i 2 -a 1 -x {1.0 9.0 -1 ------- null}
d -t 0.578984 -s 8 -d 11 -p tcp -e 1040 -c 1 -i 2 -a 1 -x {1.0 9.0 1 ------- null}
d -t 0.578984 -s 7 -d 11 -p tcp -e 1040 -c 1 -i 2 -a 1 -x {1.0 9.0 1 ------- null}
d -t 0.578984 -s 6 -d 11 -p tcp -e 1040 -c 1 -i 2 -a 1 -x {1.0 9.0 1 ------- null}
+ -t 0.5873 -s 5 -d 11 -p tcp -e 1040 -c 1 -i 3 -a 1 -x {1.0 9.0 2 ------- null}
- -t 0.5873 -s 5 -d 11 -p tcp -e 1040 -c 1 -i 3 -a 1 -x {1.0 9.0 2 ------- null}
h -t 0.5873 -s 5 -d 11 -p tcp -e 1040 -c 1 -i 3 -a 1 -x {1.0 9.0 -1 ------- null}
d -t 0.587304 -s 8 -d 11 -p tcp -e 1040 -c 1 -i 3 -a 1 -x {1.0 9.0 2 ------- null}
d -t 0.587304 -s 7 -d 11 -p tcp -e 1040 -c 1 -i 3 -a 1 -x {1.0 9.0 2 ------- null}
d -t 0.587304 -s 6 -d 11 -p tcp -e 1040 -c 1 -i 3 -a 1 -x {1.0 9.0 2 ------- null}
r -t 0.618984 -s 11 -d 9 -p tcp -e 1040 -c 1 -i 2 -a 1 -x {1.0 9.0 1 ------- null}
h -t 0.618984 -s 9 -d 11 -p ack -e 40 -c 1 -i 4 -a 1 -x {9.0 1.0 1 ------- null}
r -t 0.627304 -s 11 -d 9 -p tcp -e 1040 -c 1 -i 3 -a 1 -x {1.0 9.0 2 ------- null}
h -t 0.627304 -s 9 -d 11 -p ack -e 40 -c 1 -i 5 -a 1 -x {9.0 1.0 2 ------- null}
+ -t 0.658984 -s 9 -d 11 -p ack -e 40 -c 1 -i 4 -a 1 -x {9.0 1.0 1 ------- null}
- -t 0.658984 -s 9 -d 11 -p ack -e 40 -c 1 -i 4 -a 1 -x {9.0 1.0 1 ------- null}
h -t 0.658984 -s 9 -d 11 -p ack -e 40 -c 1 -i 4 -a 1 -x {9.0 1.0 -1 ------- null}
d -t 0.658988 -s 8 -d 11 -p ack -e 40 -c 1 -i 4 -a 1 -x {9.0 1.0 1 ------- null}
d -t 0.658988 -s 7 -d 11 -p ack -e 40 -c 1 -i 4 -a 1 -x {9.0 1.0 1 ------- null}
d -t 0.658988 -s 6 -d 11 -p ack -e 40 -c 1 -i 4 -a 1 -x {9.0 1.0 1 ------- null}
+ -t 0.667304 -s 9 -d 11 -p ack -e 40 -c 1 -i 5 -a 1 -x {9.0 1.0 2 ------- null}
- -t 0.667304 -s 9 -d 11 -p ack -e 40 -c 1 -i 5 -a 1 -x {9.0 1.0 2 ------- null}
h -t 0.667304 -s 9 -d 11 -p ack -e 40 -c 1 -i 5 -a 1 -x {9.0 1.0 -1 ------- null}
d -t 0.667308 -s 8 -d 11 -p ack -e 40 -c 1 -i 5 -a 1 -x {9.0 1.0 2 ------- null}
d -t 0.667308 -s 7 -d 11 -p ack -e 40 -c 1 -i 5 -a 1 -x {9.0 1.0 2 ------- null}
d -t 0.667308 -s 6 -d 11 -p ack -e 40 -c 1 -i 5 -a 1 -x {9.0 1.0 2 ------- null}
r -t 0.698988 -s 11 -d 5 -p ack -e 40 -c 1 -i 4 -a 1 -x {9.0 1.0 1 ------- null}
+ -t 0.698988 -s 5 -d 0 -p ack -e 40 -c 1 -i 4 -a 1 -x {9.0 1.0 1 ------- null}
- -t 0.698988 -s 5 -d 0 -p ack -e 40 -c 1 -i 4 -a 1 -x {9.0 1.0 1 ------- null}
h -t 0.698988 -s 5 -d 0 -p ack -e 40 -c 1 -i 4 -a 1 -x {9.0 1.0 -1 ------- null}
r -t 0.707308 -s 11 -d 5 -p ack -e 40 -c 1 -i 5 -a 1 -x {9.0 1.0 2 ------- null}
+ -t 0.707308 -s 5 -d 0 -p ack -e 40 -c 1 -i 5 -a 1 -x {9.0 1.0 2 ------- null}
- -t 0.707308 -s 5 -d 0 -p ack -e 40 -c 1 -i 5 -a 1 -x {9.0 1.0 2 ------- null}
h -t 0.707308 -s 5 -d 0 -p ack -e 40 -c 1 -i 5 -a 1 -x {9.0 1.0 -1 ------- null}
r -t 0.709308 -s 5 -d 0 -p ack -e 40 -c 1 -i 4 -a 1 -x {9.0 1.0 1 ------- null}
h -t 0.709308 -s 0 -d 10 -p ack -e 40 -c 1 -i 4 -a 1 -x {9.0 1.0 1 ------- null}
r -t 0.717628 -s 5 -d 0 -p ack -e 40 -c 1 -i 5 -a 1 -x {9.0 1.0 2 ------- null}
h -t 0.717628 -s 0 -d 10 -p ack -e 40 -c 1 -i 5 -a 1 -x {9.0 1.0 2 ------- null}
+ -t 0.749308 -s 0 -d 10 -p ack -e 40 -c 1 -i 4 -a 1 -x {9.0 1.0 1 ------- null}
- -t 0.749308 -s 0 -d 10 -p ack -e 40 -c 1 -i 4 -a 1 -x {9.0 1.0 1 ------- null}
h -t 0.749308 -s 0 -d 10 -p ack -e 40 -c 1 -i 4 -a 1 -x {9.0 1.0 -1 ------- null}
d -t 0.749312 -s 4 -d 10 -p ack -e 40 -c 1 -i 4 -a 1 -x {9.0 1.0 1 ------- null}
d -t 0.749312 -s 3 -d 10 -p ack -e 40 -c 1 -i 4 -a 1 -x {9.0 1.0 1 ------- null}
d -t 0.749312 -s 2 -d 10 -p ack -e 40 -c 1 -i 4 -a 1 -x {9.0 1.0 1 ------- null}
+ -t 0.757628 -s 0 -d 10 -p ack -e 40 -c 1 -i 5 -a 1 -x {9.0 1.0 2 ------- null}
- -t 0.757628 -s 0 -d 10 -p ack -e 40 -c 1 -i 5 -a 1 -x {9.0 1.0 2 ------- null}
h -t 0.757628 -s 0 -d 10 -p ack -e 40 -c 1 -i 5 -a 1 -x {9.0 1.0 -1 ------- null}
d -t 0.757632 -s 4 -d 10 -p ack -e 40 -c 1 -i 5 -a 1 -x {9.0 1.0 2 ------- null}
d -t 0.757632 -s 3 -d 10 -p ack -e 40 -c 1 -i 5 -a 1 -x {9.0 1.0 2 ------- null}
d -t 0.757632 -s 2 -d 10 -p ack -e 40 -c 1 -i 5 -a 1 -x {9.0 1.0 2 ------- null}
r -t 0.789312 -s 10 -d 1 -p ack -e 40 -c 1 -i 4 -a 1 -x {9.0 1.0 1 ------- null}
h -t 0.789312 -s 1 -d 10 -p tcp -e 1040 -c 1 -i 6 -a 1 -x {1.0 9.0 3 ------- null}
h -t 0.789312 -s 1 -d 10 -p tcp -e 1040 -c 1 -i 7 -a 1 -x {1.0 9.0 4 ------- null}
r -t 0.797632 -s 10 -d 1 -p ack -e 40 -c 1 -i 5 -a 1 -x {9.0 1.0 2 ------- null}
h -t 0.797632 -s 1 -d 10 -p tcp -e 1040 -c 1 -i 8 -a 1 -x {1.0 9.0 5 ------- null}
h -t 0.797632 -s 1 -d 10 -p tcp -e 1040 -c 1 -i 9 -a 1 -x {1.0 9.0 6 ------- null}
+ -t 0.829312 -s 1 -d 10 -p tcp -e 1040 -c 1 -i 6 -a 1 -x {1.0 9.0 3 ------- null}
- -t 0.829312 -s 1 -d 10 -p tcp -e 1040 -c 1 -i 6 -a 1 -x {1.0 9.0 3 ------- null}
h -t 0.829312 -s 1 -d 10 -p tcp -e 1040 -c 1 -i 6 -a 1 -x {1.0 9.0 -1 ------- null}
+ -t 0.829312 -s 1 -d 10 -p tcp -e 1040 -c 1 -i 7 -a 1 -x {1.0 9.0 4 ------- null}
d -t 0.829316 -s 4 -d 10 -p tcp -e 1040 -c 1 -i 6 -a 1 -x {1.0 9.0 3 ------- null}
d -t 0.829316 -s 3 -d 10 -p tcp -e 1040 -c 1 -i 6 -a 1 -x {1.0 9.0 3 ------- null}
d -t 0.829316 -s 2 -d 10 -p tcp -e 1040 -c 1 -i 6 -a 1 -x {1.0 9.0 3 ------- null}
- -t 0.833728 -s 1 -d 10 -p tcp -e 1040 -c 1 -i 7 -a 1 -x {1.0 9.0 4 ------- null}
h -t 0.833728 -s 1 -d 10 -p tcp -e 1040 -c 1 -i 7 -a 1 -x {1.0 9.0 -1 ------- null}
d -t 0.833732 -s 4 -d 10 -p tcp -e 1040 -c 1 -i 7 -a 1 -x {1.0 9.0 4 ------- null}
d -t 0.833732 -s 3 -d 10 -p tcp -e 1040 -c 1 -i 7 -a 1 -x {1.0 9.0 4 ------- null}
d -t 0.833732 -s 2 -d 10 -p tcp -e 1040 -c 1 -i 7 -a 1 -x {1.0 9.0 4 ------- null}
+ -t 0.837632 -s 1 -d 10 -p tcp -e 1040 -c 1 -i 8 -a 1 -x {1.0 9.0 5 ------- null}
+ -t 0.837632 -s 1 -d 10 -p tcp -e 1040 -c 1 -i 9 -a 1 -x {1.0 9.0 6 ------- null}
- -t 0.838144 -s 1 -d 10 -p tcp -e 1040 -c 1 -i 8 -a 1 -x {1.0 9.0 5 ------- null}
h -t 0.838144 -s 1 -d 10 -p tcp -e 1040 -c 1 -i 8 -a 1 -x {1.0 9.0 -1 ------- null}
d -t 0.838148 -s 4 -d 10 -p tcp -e 1040 -c 1 -i 8 -a 1 -x {1.0 9.0 5 ------- null}
d -t 0.838148 -s 3 -d 10 -p tcp -e 1040 -c 1 -i 8 -a 1 -x {1.0 9.0 5 ------- null}
d -t 0.838148 -s 2 -d 10 -p tcp -e 1040 -c 1 -i 8 -a 1 -x {1.0 9.0 5 ------- null}
- -t 0.84256 -s 1 -d 10 -p tcp -e 1040 -c 1 -i 9 -a 1 -x {1.0 9.0 6 ------- null}
h -t 0.84256 -s 1 -d 10 -p tcp -e 1040 -c 1 -i 9 -a 1 -x {1.0 9.0 -1 ------- null}
d -t 0.842564 -s 4 -d 10 -p tcp -e 1040 -c 1 -i 9 -a 1 -x {1.0 9.0 6 ------- null}
d -t 0.842564 -s 3 -d 10 -p tcp -e 1040 -c 1 -i 9 -a 1 -x {1.0 9.0 6 ------- null}
d -t 0.842564 -s 2 -d 10 -p tcp -e 1040 -c 1 -i 9 -a 1 -x {1.0 9.0 6 ------- null}
r -t 0.869316 -s 10 -d 0 -p tcp -e 1040 -c 1 -i 6 -a 1 -x {1.0 9.0 3 ------- null}
+ -t 0.869316 -s 0 -d 5 -p tcp -e 1040 -c 1 -i 6 -a 1 -x {1.0 9.0 3 ------- null}
- -t 0.869316 -s 0 -d 5 -p tcp -e 1040 -c 1 -i 6 -a 1 -x {1.0 9.0 3 ------- null}
h -t 0.869316 -s 0 -d 5 -p tcp -e 1040 -c 1 -i 6 -a 1 -x {1.0 9.0 -1 ------- null}
r -t 0.873732 -s 10 -d 0 -p tcp -e 1040 -c 1 -i 7 -a 1 -x {1.0 9.0 4 ------- null}
+ -t 0.873732 -s 0 -d 5 -p tcp -e 1040 -c 1 -i 7 -a 1 -x {1.0 9.0 4 ------- null}
- -t 0.877636 -s 0 -d 5 -p tcp -e 1040 -c 1 -i 7 -a 1 -x {1.0 9.0 4 ------- null}
h -t 0.877636 -s 0 -d 5 -p tcp -e 1040 -c 1 -i 7 -a 1 -x {1.0 9.0 -1 ------- null}
r -t 0.878148 -s 10 -d 0 -p tcp -e 1040 -c 1 -i 8 -a 1 -x {1.0 9.0 5 ------- null}
+ -t 0.878148 -s 0 -d 5 -p tcp -e 1040 -c 1 -i 8 -a 1 -x {1.0 9.0 5 ------- null}
r -t 0.882564 -s 10 -d 0 -p tcp -e 1040 -c 1 -i 9 -a 1 -x {1.0 9.0 6 ------- null}
+ -t 0.882564 -s 0 -d 5 -p tcp -e 1040 -c 1 -i 9 -a 1 -x {1.0 9.0 6 ------- null}
- -t 0.885956 -s 0 -d 5 -p tcp -e 1040 -c 1 -i 8 -a 1 -x {1.0 9.0 5 ------- null}
h -t 0.885956 -s 0 -d 5 -p tcp -e 1040 -c 1 -i 8 -a 1 -x {1.0 9.0 -1 ------- null}
r -t 0.887636 -s 0 -d 5 -p tcp -e 1040 -c 1 -i 6 -a 1 -x {1.0 9.0 3 ------- null}
h -t 0.887636 -s 5 -d 11 -p tcp -e 1040 -c 1 -i 6 -a 1 -x {1.0 9.0 3 ------- null}
- -t 0.894276 -s 0 -d 5 -p tcp -e 1040 -c 1 -i 9 -a 1 -x {1.0 9.0 6 ------- null}
h -t 0.894276 -s 0 -d 5 -p tcp -e 1040 -c 1 -i 9 -a 1 -x {1.0 9.0 -1 ------- null}
r -t 0.895956 -s 0 -d 5 -p tcp -e 1040 -c 1 -i 7 -a 1 -x {1.0 9.0 4 ------- null}
h -t 0.895956 -s 5 -d 11 -p tcp -e 1040 -c 1 -i 7 -a 1 -x {1.0 9.0 4 ------- null}
r -t 0.904276 -s 0 -d 5 -p tcp -e 1040 -c 1 -i 8 -a 1 -x {1.0 9.0 5 ------- null}
h -t 0.904276 -s 5 -d 11 -p tcp -e 1040 -c 1 -i 8 -a 1 -x {1.0 9.0 5 ------- null}
r -t 0.912596 -s 0 -d 5 -p tcp -e 1040 -c 1 -i 9 -a 1 -x {1.0 9.0 6 ------- null}
h -t 0.912596 -s 5 -d 11 -p tcp -e 1040 -c 1 -i 9 -a 1 -x {1.0 9.0 6 ------- null}
+ -t 0.927636 -s 5 -d 11 -p tcp -e 1040 -c 1 -i 6 -a 1 -x {1.0 9.0 3 ------- null}
- -t 0.927636 -s 5 -d 11 -p tcp -e 1040 -c 1 -i 6 -a 1 -x {1.0 9.0 3 ------- null}
h -t 0.927636 -s 5 -d 11 -p tcp -e 1040 -c 1 -i 6 -a 1 -x {1.0 9.0 -1 ------- null}
d -t 0.92764 -s 8 -d 11 -p tcp -e 1040 -c 1 -i 6 -a 1 -x {1.0 9.0 3 ------- null}
d -t 0.92764 -s 7 -d 11 -p tcp -e 1040 -c 1 -i 6 -a 1 -x {1.0 9.0 3 ------- null}
d -t 0.92764 -s 6 -d 11 -p tcp -e 1040 -c 1 -i 6 -a 1 -x {1.0 9.0 3 ------- null}
+ -t 0.935956 -s 5 -d 11 -p tcp -e 1040 -c 1 -i 7 -a 1 -x {1.0 9.0 4 ------- null}
- -t 0.935956 -s 5 -d 11 -p tcp -e 1040 -c 1 -i 7 -a 1 -x {1.0 9.0 4 ------- null}
h -t 0.935956 -s 5 -d 11 -p tcp -e 1040 -c 1 -i 7 -a 1 -x {1.0 9.0 -1 ------- null}
d -t 0.93596 -s 8 -d 11 -p tcp -e 1040 -c 1 -i 7 -a 1 -x {1.0 9.0 4 ------- null}
d -t 0.93596 -s 7 -d 11 -p tcp -e 1040 -c 1 -i 7 -a 1 -x {1.0 9.0 4 ------- null}
d -t 0.93596 -s 6 -d 11 -p tcp -e 1040 -c 1 -i 7 -a 1 -x {1.0 9.0 4 ------- null}
+ -t 0.944276 -s 5 -d 11 -p tcp -e 1040 -c 1 -i 8 -a 1 -x {1.0 9.0 5 ------- null}
- -t 0.944276 -s 5 -d 11 -p tcp -e 1040 -c 1 -i 8 -a 1 -x {1.0 9.0 5 ------- null}
h -t 0.944276 -s 5 -d 11 -p tcp -e 1040 -c 1 -i 8 -a 1 -x {1.0 9.0 -1 ------- null}
d -t 0.94428 -s 8 -d 11 -p tcp -e 1040 -c 1 -i 8 -a 1 -x {1.0 9.0 5 ------- null}
d -t 0.94428 -s 7 -d 11 -p tcp -e 1040 -c 1 -i 8 -a 1 -x {1.0 9.0 5 ------- null}
d -t 0.94428 -s 6 -d 11 -p tcp -e 1040 -c 1 -i 8 -a 1 -x {1.0 9.0 5 ------- null}
+ -t 0.952596 -s 5 -d 11 -p tcp -e 1040 -c 1 -i 9 -a 1 -x {1.0 9.0 6 ------- null}
- -t 0.952596 -s 5 -d 11 -p tcp -e 1040 -c 1 -i 9 -a 1 -x {1.0 9.0 6 ------- null}
h -t 0.952596 -s 5 -d 11 -p tcp -e 1040 -c 1 -i 9 -a 1 -x {1.0 9.0 -1 ------- null}
d -t 0.9526 -s 8 -d 11 -p tcp -e 1040 -c 1 -i 9 -a 1 -x {1.0 9.0 6 ------- null}
d -t 0.9526 -s 7 -d 11 -p tcp -e 1040 -c 1 -i 9 -a 1 -x {1.0 9.0 6 ------- null}
d -t 0.9526 -s 6 -d 11 -p tcp -e 1040 -c 1 -i 9 -a 1 -x {1.0 9.0 6 ------- null}
r -t 0.96764 -s 11 -d 9 -p tcp -e 1040 -c 1 -i 6 -a 1 -x {1.0 9.0 3 ------- null}
h -t 0.96764 -s 9 -d 11 -p ack -e 40 -c 1 -i 10 -a 1 -x {9.0 1.0 3 ------- null}
r -t 0.97596 -s 11 -d 9 -p tcp -e 1040 -c 1 -i 7 -a 1 -x {1.0 9.0 4 ------- null}
h -t 0.97596 -s 9 -d 11 -p ack -e 40 -c 1 -i 11 -a 1 -x {9.0 1.0 4 ------- null}
r -t 0.98428 -s 11 -d 9 -p tcp -e 1040 -c 1 -i 8 -a 1 -x {1.0 9.0 5 ------- null}
h -t 0.98428 -s 9 -d 11 -p ack -e 40 -c 1 -i 12 -a 1 -x {9.0 1.0 5 ------- null}
r -t 0.9926 -s 11 -d 9 -p tcp -e 1040 -c 1 -i 9 -a 1 -x {1.0 9.0 6 ------- null}
h -t 0.9926 -s 9 -d 11 -p ack -e 40 -c 1 -i 13 -a 1 -x {9.0 1.0 6 ------- null}
+ -t 1.00764 -s 9 -d 11 -p ack -e 40 -c 1 -i 10 -a 1 -x {9.0 1.0 3 ------- null}
- -t 1.00764 -s 9 -d 11 -p ack -e 40 -c 1 -i 10 -a 1 -x {9.0 1.0 3 ------- null}
h -t 1.00764 -s 9 -d 11 -p ack -e 40 -c 1 -i 10 -a 1 -x {9.0 1.0 -1 ------- null}
d -t 1.007644 -s 8 -d 11 -p ack -e 40 -c 1 -i 10 -a 1 -x {9.0 1.0 3 ------- null}
d -t 1.007644 -s 7 -d 11 -p ack -e 40 -c 1 -i 10 -a 1 -x {9.0 1.0 3 ------- null}
d -t 1.007644 -s 6 -d 11 -p ack -e 40 -c 1 -i 10 -a 1 -x {9.0 1.0 3 ------- null}
+ -t 1.01596 -s 9 -d 11 -p ack -e 40 -c 1 -i 11 -a 1 -x {9.0 1.0 4 ------- null}
- -t 1.01596 -s 9 -d 11 -p ack -e 40 -c 1 -i 11 -a 1 -x {9.0 1.0 4 ------- null}
h -t 1.01596 -s 9 -d 11 -p ack -e 40 -c 1 -i 11 -a 1 -x {9.0 1.0 -1 ------- null}
d -t 1.015964 -s 8 -d 11 -p ack -e 40 -c 1 -i 11 -a 1 -x {9.0 1.0 4 ------- null}
d -t 1.015964 -s 7 -d 11 -p ack -e 40 -c 1 -i 11 -a 1 -x {9.0 1.0 4 ------- null}
d -t 1.015964 -s 6 -d 11 -p ack -e 40 -c 1 -i 11 -a 1 -x {9.0 1.0 4 ------- null}
+ -t 1.02428 -s 9 -d 11 -p ack -e 40 -c 1 -i 12 -a 1 -x {9.0 1.0 5 ------- null}
- -t 1.02428 -s 9 -d 11 -p ack -e 40 -c 1 -i 12 -a 1 -x {9.0 1.0 5 ------- null}
h -t 1.02428 -s 9 -d 11 -p ack -e 40 -c 1 -i 12 -a 1 -x {9.0 1.0 -1 ------- null}
d -t 1.024284 -s 8 -d 11 -p ack -e 40 -c 1 -i 12 -a 1 -x {9.0 1.0 5 ------- null}
d -t 1.024284 -s 7 -d 11 -p ack -e 40 -c 1 -i 12 -a 1 -x {9.0 1.0 5 ------- null}
d -t 1.024284 -s 6 -d 11 -p ack -e 40 -c 1 -i 12 -a 1 -x {9.0 1.0 5 ------- null}
+ -t 1.0326 -s 9 -d 11 -p ack -e 40 -c 1 -i 13 -a 1 -x {9.0 1.0 6 ------- null}
- -t 1.0326 -s 9 -d 11 -p ack -e 40 -c 1 -i 13 -a 1 -x {9.0 1.0 6 ------- null}
h -t 1.0326 -s 9 -d 11 -p ack -e 40 -c 1 -i 13 -a 1 -x {9.0 1.0 -1 ------- null}
d -t 1.032604 -s 8 -d 11 -p ack -e 40 -c 1 -i 13 -a 1 -x {9.0 1.0 6 ------- null}
d -t 1.032604 -s 7 -d 11 -p ack -e 40 -c 1 -i 13 -a 1 -x {9.0 1.0 6 ------- null}
d -t 1.032604 -s 6 -d 11 -p ack -e 40 -c 1 -i 13 -a 1 -x {9.0 1.0 6 ------- null}
r -t 1.047644 -s 11 -d 5 -p ack -e 40 -c 1 -i 10 -a 1 -x {9.0 1.0 3 ------- null}
+ -t 1.047644 -s 5 -d 0 -p ack -e 40 -c 1 -i 10 -a 1 -x {9.0 1.0 3 ------- null}
- -t 1.047644 -s 5 -d 0 -p ack -e 40 -c 1 -i 10 -a 1 -x {9.0 1.0 3 ------- null}
h -t 1.047644 -s 5 -d 0 -p ack -e 40 -c 1 -i 10 -a 1 -x {9.0 1.0 -1 ------- null}
r -t 1.055964 -s 11 -d 5 -p ack -e 40 -c 1 -i 11 -a 1 -x {9.0 1.0 4 ------- null}
+ -t 1.055964 -s 5 -d 0 -p ack -e 40 -c 1 -i 11 -a 1 -x {9.0 1.0 4 ------- null}
- -t 1.055964 -s 5 -d 0 -p ack -e 40 -c 1 -i 11 -a 1 -x {9.0 1.0 4 ------- null}
h -t 1.055964 -s 5 -d 0 -p ack -e 40 -c 1 -i 11 -a 1 -x {9.0 1.0 -1 ------- null}
r -t 1.057964 -s 5 -d 0 -p ack -e 40 -c 1 -i 10 -a 1 -x {9.0 1.0 3 ------- null}
h -t 1.057964 -s 0 -d 10 -p ack -e 40 -c 1 -i 10 -a 1 -x {9.0 1.0 3 ------- null}
r -t 1.064284 -s 11 -d 5 -p ack -e 40 -c 1 -i 12 -a 1 -x {9.0 1.0 5 ------- null}
+ -t 1.064284 -s 5 -d 0 -p ack -e 40 -c 1 -i 12 -a 1 -x {9.0 1.0 5 ------- null}
- -t 1.064284 -s 5 -d 0 -p ack -e 40 -c 1 -i 12 -a 1 -x {9.0 1.0 5 ------- null}
h -t 1.064284 -s 5 -d 0 -p ack -e 40 -c 1 -i 12 -a 1 -x {9.0 1.0 -1 ------- null}
r -t 1.066284 -s 5 -d 0 -p ack -e 40 -c 1 -i 11 -a 1 -x {9.0 1.0 4 ------- null}
h -t 1.066284 -s 0 -d 10 -p ack -e 40 -c 1 -i 11 -a 1 -x {9.0 1.0 4 ------- null}
r -t 1.072604 -s 11 -d 5 -p ack -e 40 -c 1 -i 13 -a 1 -x {9.0 1.0 6 ------- null}
+ -t 1.072604 -s 5 -d 0 -p ack -e 40 -c 1 -i 13 -a 1 -x {9.0 1.0 6 ------- null}
- -t 1.072604 -s 5 -d 0 -p ack -e 40 -c 1 -i 13 -a 1 -x {9.0 1.0 6 ------- null}
h -t 1.072604 -s 5 -d 0 -p ack -e 40 -c 1 -i 13 -a 1 -x {9.0 1.0 -1 ------- null}
r -t 1.074604 -s 5 -d 0 -p ack -e 40 -c 1 -i 12 -a 1 -x {9.0 1.0 5 ------- null}
h -t 1.074604 -s 0 -d 10 -p ack -e 40 -c 1 -i 12 -a 1 -x {9.0 1.0 5 ------- null}
r -t 1.082924 -s 5 -d 0 -p ack -e 40 -c 1 -i 13 -a 1 -x {9.0 1.0 6 ------- null}
h -t 1.082924 -s 0 -d 10 -p ack -e 40 -c 1 -i 13 -a 1 -x {9.0 1.0 6 ------- null}
+ -t 1.097964 -s 0 -d 10 -p ack -e 40 -c 1 -i 10 -a 1 -x {9.0 1.0 3 ------- null}
- -t 1.097964 -s 0 -d 10 -p ack -e 40 -c 1 -i 10 -a 1 -x {9.0 1.0 3 ------- null}
h -t 1.097964 -s 0 -d 10 -p ack -e 40 -c 1 -i 10 -a 1 -x {9.0 1.0 -1 ------- null}
d -t 1.097968 -s 4 -d 10 -p ack -e 40 -c 1 -i 10 -a 1 -x {9.0 1.0 3 ------- null}
d -t 1.097968 -s 3 -d 10 -p ack -e 40 -c 1 -i 10 -a 1 -x {9.0 1.0 3 ------- null}
d -t 1.097968 -s 2 -d 10 -p ack -e 40 -c 1 -i 10 -a 1 -x {9.0 1.0 3 ------- null}
+ -t 1.106284 -s 0 -d 10 -p ack -e 40 -c 1 -i 11 -a 1 -x {9.0 1.0 4 ------- null}
- -t 1.106284 -s 0 -d 10 -p ack -e 40 -c 1 -i 11 -a 1 -x {9.0 1.0 4 ------- null}
h -t 1.106284 -s 0 -d 10 -p ack -e 40 -c 1 -i 11 -a 1 -x {9.0 1.0 -1 ------- null}
d -t 1.106288 -s 4 -d 10 -p ack -e 40 -c 1 -i 11 -a 1 -x {9.0 1.0 4 ------- null}
d -t 1.106288 -s 3 -d 10 -p ack -e 40 -c 1 -i 11 -a 1 -x {9.0 1.0 4 ------- null}
d -t 1.106288 -s 2 -d 10 -p ack -e 40 -c 1 -i 11 -a 1 -x {9.0 1.0 4 ------- null}
+ -t 1.114604 -s 0 -d 10 -p ack -e 40 -c 1 -i 12 -a 1 -x {9.0 1.0 5 ------- null}
- -t 1.114604 -s 0 -d 10 -p ack -e 40 -c 1 -i 12 -a 1 -x {9.0 1.0 5 ------- null}
h -t 1.114604 -s 0 -d 10 -p ack -e 40 -c 1 -i 12 -a 1 -x {9.0 1.0 -1 ------- null}
d -t 1.114608 -s 4 -d 10 -p ack -e 40 -c 1 -i 12 -a 1 -x {9.0 1.0 5 ------- null}
d -t 1.114608 -s 3 -d 10 -p ack -e 40 -c 1 -i 12 -a 1 -x {9.0 1.0 5 ------- null}
d -t 1.114608 -s 2 -d 10 -p ack -e 40 -c 1 -i 12 -a 1 -x {9.0 1.0 5 ------- null}
+ -t 1.122924 -s 0 -d 10 -p ack -e 40 -c 1 -i 13 -a 1 -x {9.0 1.0 6 ------- null}
- -t 1.122924 -s 0 -d 10 -p ack -e 40 -c 1 -i 13 -a 1 -x {9.0 1.0 6 ------- null}
h -t 1.122924 -s 0 -d 10 -p ack -e 40 -c 1 -i 13 -a 1 -x {9.0 1.0 -1 ------- null}
d -t 1.122928 -s 4 -d 10 -p ack -e 40 -c 1 -i 13 -a 1 -x {9.0 1.0 6 ------- null}
d -t 1.122928 -s 3 -d 10 -p ack -e 40 -c 1 -i 13 -a 1 -x {9.0 1.0 6 ------- null}
d -t 1.122928 -s 2 -d 10 -p ack -e 40 -c 1 -i 13 -a 1 -x {9.0 1.0 6 ------- null}
r -t 1.137968 -s 10 -d 1 -p ack -e 40 -c 1 -i 10 -a 1 -x {9.0 1.0 3 ------- null}
h -t 1.137968 -s 1 -d 10 -p tcp -e 1040 -c 1 -i 14 -a 1 -x {1.0 9.0 7 ------- null}
h -t 1.137968 -s 1 -d 10 -p tcp -e 1040 -c 1 -i 15 -a 1 -x {1.0 9.0 8 ------- null}
r -t 1.146288 -s 10 -d 1 -p ack -e 40 -c 1 -i 11 -a 1 -x {9.0 1.0 4 ------- null}
h -t 1.146288 -s 1 -d 10 -p tcp -e 1040 -c 1 -i 16 -a 1 -x {1.0 9.0 9 ------- null}
h -t 1.146288 -s 1 -d 10 -p tcp -e 1040 -c 1 -i 17 -a 1 -x {1.0 9.0 10 ------- null}
r -t 1.154608 -s 10 -d 1 -p ack -e 40 -c 1 -i 12 -a 1 -x {9.0 1.0 5 ------- null}
h -t 1.154608 -s 1 -d 10 -p tcp -e 1040 -c 1 -i 18 -a 1 -x {1.0 9.0 11 ------- null}
h -t 1.154608 -s 1 -d 10 -p tcp -e 1040 -c 1 -i 19 -a 1 -x {1.0 9.0 12 ------- null}
r -t 1.162928 -s 10 -d 1 -p ack -e 40 -c 1 -i 13 -a 1 -x {9.0 1.0 6 ------- null}
h -t 1.162928 -s 1 -d 10 -p tcp -e 1040 -c 1 -i 20 -a 1 -x {1.0 9.0 13 ------- null}
h -t 1.162928 -s 1 -d 10 -p tcp -e 1040 -c 1 -i 21 -a 1 -x {1.0 9.0 14 ------- null}
+ -t 1.177968 -s 1 -d 10 -p tcp -e 1040 -c 1 -i 14 -a 1 -x {1.0 9.0 7 ------- null}
- -t 1.177968 -s 1 -d 10 -p tcp -e 1040 -c 1 -i 14 -a 1 -x {1.0 9.0 7 ------- null}
h -t 1.177968 -s 1 -d 10 -p tcp -e 1040 -c 1 -i 14 -a 1 -x {1.0 9.0 -1 ------- null}
+ -t 1.177968 -s 1 -d 10 -p tcp -e 1040 -c 1 -i 15 -a 1 -x {1.0 9.0 8 ------- null}
d -t 1.177972 -s 4 -d 10 -p tcp -e 1040 -c 1 -i 14 -a 1 -x {1.0 9.0 7 ------- null}
d -t 1.177972 -s 3 -d 10 -p tcp -e 1040 -c 1 -i 14 -a 1 -x {1.0 9.0 7 ------- null}
d -t 1.177972 -s 2 -d 10 -p tcp -e 1040 -c 1 -i 14 -a 1 -x {1.0 9.0 7 ------- null}
- -t 1.182384 -s 1 -d 10 -p tcp -e 1040 -c 1 -i 15 -a 1 -x {1.0 9.0 8 ------- null}
h -t 1.182384 -s 1 -d 10 -p tcp -e 1040 -c 1 -i 15 -a 1 -x {1.0 9.0 -1 ------- null}
d -t 1.182388 -s 4 -d 10 -p tcp -e 1040 -c 1 -i 15 -a 1 -x {1.0 9.0 8 ------- null}
d -t 1.182388 -s 3 -d 10 -p tcp -e 1040 -c 1 -i 15 -a 1 -x {1.0 9.0 8 ------- null}
d -t 1.182388 -s 2 -d 10 -p tcp -e 1040 -c 1 -i 15 -a 1 -x {1.0 9.0 8 ------- null}
+ -t 1.186288 -s 1 -d 10 -p tcp -e 1040 -c 1 -i 16 -a 1 -x {1.0 9.0 9 ------- null}
+ -t 1.186288 -s 1 -d 10 -p tcp -e 1040 -c 1 -i 17 -a 1 -x {1.0 9.0 10 ------- null}
- -t 1.1868 -s 1 -d 10 -p tcp -e 1040 -c 1 -i 16 -a 1 -x {1.0 9.0 9 ------- null}
h -t 1.1868 -s 1 -d 10 -p tcp -e 1040 -c 1 -i 16 -a 1 -x {1.0 9.0 -1 ------- null}
d -t 1.186804 -s 4 -d 10 -p tcp -e 1040 -c 1 -i 16 -a 1 -x {1.0 9.0 9 ------- null}
d -t 1.186804 -s 3 -d 10 -p tcp -e 1040 -c 1 -i 16 -a 1 -x {1.0 9.0 9 ------- null}
d -t 1.186804 -s 2 -d 10 -p tcp -e 1040 -c 1 -i 16 -a 1 -x {1.0 9.0 9 ------- null}
- -t 1.191216 -s 1 -d 10 -p tcp -e 1040 -c 1 -i 17 -a 1 -x {1.0 9.0 10 ------- null}
h -t 1.191216 -s 1 -d 10 -p tcp -e 1040 -c 1 -i 17 -a 1 -x {1.0 9.0 -1 ------- null}
d -t 1.19122 -s 4 -d 10 -p tcp -e 1040 -c 1 -i 17 -a 1 -x {1.0 9.0 10 ------- null}
d -t 1.19122 -s 3 -d 10 -p tcp -e 1040 -c 1 -i 17 -a 1 -x {1.0 9.0 10 ------- null}
d -t 1.19122 -s 2 -d 10 -p tcp -e 1040 -c 1 -i 17 -a 1 -x {1.0 9.0 10 ------- null}
+ -t 1.194608 -s 1 -d 10 -p tcp -e 1040 -c 1 -i 18 -a 1 -x {1.0 9.0 11 ------- null}
+ -t 1.194608 -s 1 -d 10 -p tcp -e 1040 -c 1 -i 19 -a 1 -x {1.0 9.0 12 ------- null}
- -t 1.195632 -s 1 -d 10 -p tcp -e 1040 -c 1 -i 18 -a 1 -x {1.0 9.0 11 ------- null}
h -t 1.195632 -s 1 -d 10 -p tcp -e 1040 -c 1 -i 18 -a 1 -x {1.0 9.0 -1 ------- null}
d -t 1.195636 -s 4 -d 10 -p tcp -e 1040 -c 1 -i 18 -a 1 -x {1.0 9.0 11 ------- null}
d -t 1.195636 -s 3 -d 10 -p tcp -e 1040 -c 1 -i 18 -a 1 -x {1.0 9.0 11 ------- null}
d -t 1.195636 -s 2 -d 10 -p tcp -e 1040 -c 1 -i 18 -a 1 -x {1.0 9.0 11 ------- null}
- -t 1.200048 -s 1 -d 10 -p tcp -e 1040 -c 1 -i 19 -a 1 -x {1.0 9.0 12 ------- null}
h -t 1.200048 -s 1 -d 10 -p tcp -e 1040 -c 1 -i 19 -a 1 -x {1.0 9.0 -1 ------- null}
d -t 1.200052 -s 4 -d 10 -p tcp -e 1040 -c 1 -i 19 -a 1 -x {1.0 9.0 12 ------- null}
d -t 1.200052 -s 3 -d 10 -p tcp -e 1040 -c 1 -i 19 -a 1 -x {1.0 9.0 12 ------- null}
d -t 1.200052 -s 2 -d 10 -p tcp -e 1040 -c 1 -i 19 -a 1 -x {1.0 9.0 12 ------- null}
+ -t 1.202928 -s 1 -d 10 -p tcp -e 1040 -c 1 -i 20 -a 1 -x {1.0 9.0 13 ------- null}
+ -t 1.202928 -s 1 -d 10 -p tcp -e 1040 -c 1 -i 21 -a 1 -x {1.0 9.0 14 ------- null}
- -t 1.204464 -s 1 -d 10 -p tcp -e 1040 -c 1 -i 20 -a 1 -x {1.0 9.0 13 ------- null}
h -t 1.204464 -s 1 -d 10 -p tcp -e 1040 -c 1 -i 20 -a 1 -x {1.0 9.0 -1 ------- null}
d -t 1.204468 -s 4 -d 10 -p tcp -e 1040 -c 1 -i 20 -a 1 -x {1.0 9.0 13 ------- null}
d -t 1.204468 -s 3 -d 10 -p tcp -e 1040 -c 1 -i 20 -a 1 -x {1.0 9.0 13 ------- null}
d -t 1.204468 -s 2 -d 10 -p tcp -e 1040 -c 1 -i 20 -a 1 -x {1.0 9.0 13 ------- null}
- -t 1.20888 -s 1 -d 10 -p tcp -e 1040 -c 1 -i 21 -a 1 -x {1.0 9.0 14 ------- null}
h -t 1.20888 -s 1 -d 10 -p tcp -e 1040 -c 1 -i 21 -a 1 -x {1.0 9.0 -1 ------- null}
d -t 1.208884 -s 4 -d 10 -p tcp -e 1040 -c 1 -i 21 -a 1 -x {1.0 9.0 14 ------- null}
d -t 1.208884 -s 3 -d 10 -p tcp -e 1040 -c 1 -i 21 -a 1 -x {1.0 9.0 14 ------- null}
d -t 1.208884 -s 2 -d 10 -p tcp -e 1040 -c 1 -i 21 -a 1 -x {1.0 9.0 14 ------- null}
r -t 1.217972 -s 10 -d 0 -p tcp -e 1040 -c 1 -i 14 -a 1 -x {1.0 9.0 7 ------- null}
+ -t 1.217972 -s 0 -d 5 -p tcp -e 1040 -c 1 -i 14 -a 1 -x {1.0 9.0 7 ------- null}
- -t 1.217972 -s 0 -d 5 -p tcp -e 1040 -c 1 -i 14 -a 1 -x {1.0 9.0 7 ------- null}
h -t 1.217972 -s 0 -d 5 -p tcp -e 1040 -c 1 -i 14 -a 1 -x {1.0 9.0 -1 ------- null}
r -t 1.222388 -s 10 -d 0 -p tcp -e 1040 -c 1 -i 15 -a 1 -x {1.0 9.0 8 ------- null}
+ -t 1.222388 -s 0 -d 5 -p tcp -e 1040 -c 1 -i 15 -a 1 -x {1.0 9.0 8 ------- null}
- -t 1.226292 -s 0 -d 5 -p tcp -e 1040 -c 1 -i 15 -a 1 -x {1.0 9.0 8 ------- null}
h -t 1.226292 -s 0 -d 5 -p tcp -e 1040 -c 1 -i 15 -a 1 -x {1.0 9.0 -1 ------- null}
r -t 1.226804 -s 10 -d 0 -p tcp -e 1040 -c 1 -i 16 -a 1 -x {1.0 9.0 9 ------- null}
+ -t 1.226804 -s 0 -d 5 -p tcp -e 1040 -c 1 -i 16 -a 1 -x {1.0 9.0 9 ------- null}
r -t 1.23122 -s 10 -d 0 -p tcp -e 1040 -c 1 -i 17 -a 1 -x {1.0 9.0 10 ------- null}
+ -t 1.23122 -s 0 -d 5 -p tcp -e 1040 -c 1 -i 17 -a 1 -x {1.0 9.0 10 ------- null}
- -t 1.234612 -s 0 -d 5 -p tcp -e 1040 -c 1 -i 16 -a 1 -x {1.0 9.0 9 ------- null}
h -t 1.234612 -s 0 -d 5 -p tcp -e 1040 -c 1 -i 16 -a 1 -x {1.0 9.0 -1 ------- null}