h 0.1 1 10 tcp 40 ------- 1 1.0 9.0 0 0
+ 0.14 1 10 tcp 40 ------- 1 1.0 9.0 0 0
- 0.14 1 10 tcp 40 ------- 1 1.0 9.0 0 0
d 0.140004 4 10 tcp 40 ------- 1 1.0 9.0 0 0
d 0.140004 3 10 tcp 40 ------- 1 1.0 9.0 0 0
d 0.140004 2 10 tcp 40 ------- 1 1.0 9.0 0 0
r 0.180004 10 0 tcp 40 ------- 1 1.0 9.0 0 0
+ 0.180004 0 5 tcp 40 ------- 1 1.0 9.0 0 0
- 0.180004 0 5 tcp 40 ------- 1 1.0 9.0 0 0
r 0.190324 0 5 tcp 40 ------- 1 1.0 9.0 0 0
h 0.190324 5 11 tcp 40 ------- 1 1.0 9.0 0 0
+ 0.230324 5 11 tcp 40 ------- 1 1.0 9.0 0 0
- 0.230324 5 11 tcp 40 ------- 1 1.0 9.0 0 0
d 0.230328 8 11 tcp 40 ------- 1 1.0 9.0 0 0
d 0.230328 7 11 tcp 40 ------- 1 1.0 9.0 0 0
d 0.230328 6 11 tcp 40 ------- 1 1.0 9.0 0 0
r 0.270328 11 9 tcp 40 ------- 1 1.0 9.0 0 0
h 0.270328 9 11 ack 40 ------- 1 9.0 1.0 0 1
+ 0.310328 9 11 ack 40 ------- 1 9.0 1.0 0 1
- 0.310328 9 11 ack 40 ------- 1 9.0 1.0 0 1
d 0.310332 8 11 ack 40 ------- 1 9.0 1.0 0 1
d 0.310332 7 11 ack 40 ------- 1 9.0 1.0 0 1
d 0.310332 6 11 ack 40 ------- 1 9.0 1.0 0 1
r 0.350332 11 5 ack 40 ------- 1 9.0 1.0 0 1
+ 0.350332 5 0 ack 40 ------- 1 9.0 1.0 0 1
- 0.350332 5 0 ack 40 ------- 1 9.0 1.0 0 1
r 0.360652 5 0 ack 40 ------- 1 9.0 1.0 0 1
h 0.360652 0 10 ack 40 ------- 1 9.0 1.0 0 1
+ 0.400652 0 10 ack 40 ------- 1 9.0 1.0 0 1
- 0.400652 0 10 ack 40 ------- 1 9.0 1.0 0 1
d 0.400656 4 10 ack 40 ------- 1 9.0 1.0 0 1
d 0.400656 3 10 ack 40 ------- 1 9.0 1.0 0 1
d 0.400656 2 10 ack 40 ------- 1 9.0 1.0 0 1
r 0.440656 10 1 ack 40 ------- 1 9.0 1.0 0 1
h 0.440656 1 10 tcp 1040 ------- 1 1.0 9.0 1 2
h 0.440656 1 10 tcp 1040 ------- 1 1.0 9.0 2 3
+ 0.480656 1 10 tcp 1040 ------- 1 1.0 9.0 1 2
- 0.480656 1 10 tcp 1040 ------- 1 1.0 9.0 1 2
+ 0.480656 1 10 tcp 1040 ------- 1 1.0 9.0 2 3
d 0.48066 4 10 tcp 1040 ------- 1 1.0 9.0 1 2
d 0.48066 3 10 tcp 1040 ------- 1 1.0 9.0 1 2
d 0.48066 2 10 tcp 1040 ------- 1 1.0 9.0 1 2
- 0.485072 1 10 tcp 1040 ------- 1 1.0 9.0 2 3
d 0.485076 4 10 tcp 1040 ------- 1 1.0 9.0 2 3
d 0.485076 3 10 tcp 1040 ------- 1 1.0 9.0 2 3
d 0.485076 2 10 tcp 1040 ------- 1 1.0 9.0 2 3
r 0.52066 10 0 tcp 1040 ------- 1 1.0 9.0 1 2
+ 0.52066 0 5 tcp 1040 ------- 1 1.0 9.0 1 2
- 0.52066 0 5 tcp 1040 ------- 1 1.0 9.0 1 2
r 0.525076 10 0 tcp 1040 ------- 1 1.0 9.0 2 3
+ 0.525076 0 5 tcp 1040 ------- 1 1.0 9.0 2 3
- 0.52898 0 5 tcp 1040 ------- 1 1.0 9.0 2 3
r 0.53898 0 5 tcp 1040 ------- 1 1.0 9.0 1 2
h 0.53898 5 11 tcp 1040 ------- 1 1.0 9.0 1 2
r 0.5473 0 5 tcp 1040 ------- 1 1.0 9.0 2 3
h 0.5473 5 11 tcp 1040 ------- 1 1.0 9.0 2 3
+ 0.57898 5 11 tcp 1040 ------- 1 1.0 9.0 1 2
- 0.57898 5 11 tcp 1040 ------- 1 1.0 9.0 1 2
d 0.578984 8 11 tcp 1040 ------- 1 1.0 9.0 1 2
d 0.578984 7 11 tcp 1040 ------- 1 1.0 9.0 1 2
d 0.578984 6 11 tcp 1040 ------- 1 1.0 9.0 1 2
+ 0.5873 5 11 tcp 1040 ------- 1 1.0 9.0 2 3
- 0.5873 5 11 tcp 1040 ------- 1 1.0 9.0 2 3
d 0.587304 8 11 tcp 1040 ------- 1 1.0 9.0 2 3
d 0.587304 7 11 tcp 1040 ------- 1 1.0 9.0 2 3
d 0.587304 6 11 tcp 1040 ------- 1 1.0 9.0 2 3
r 0.618984 11 9 tcp 1040 ------- 1 1.0 9.0 1 2
h 0.618984 9 11 ack 40 ------- 1 9.0 1.0 1 4
r 0.627304 11 9 tcp 1040 ------- 1 1.0 9.0 2 3
h 0.627304 9 11 ack 40 ------- 1 9.0 1.0 2 5
+ 0.658984 9 11 ack 40 ------- 1 9.0 1.0 1 4
- 0.658984 9 11 ack 40 ------- 1 9.0 1.0 1 4
d 0.658988 8 11 ack 40 ------- 1 9.0 1.0 1 4
d 0.658988 7 11 ack 40 ------- 1 9.0 1.0 1 4
d 0.658988 6 11 ack 40 ------- 1 9.0 1.0 1 4
+ 0.667304 9 11 ack 40 ------- 1 9.0 1.0 2 5
- 0.667304 9 11 ack 40 ------- 1 9.0 1.0 2 5
d 0.667308 8 11 ack 40 ------- 1 9.0 1.0 2 5
d 0.667308 7 11 ack 40 ------- 1 9.0 1.0 2 5
d 0.667308 6 11 ack 40 ------- 1 9.0 1.0 2 5
r 0.698988 11 5 ack 40 ------- 1 9.0 1.0 1 4
+ 0.698988 5 0 ack 40 ------- 1 9.0 1.0 1 4
- 0.698988 5 0 ack 40 ------- 1 9.0 1.0 1 4
r 0.707308 11 5 ack 40 ------- 1 9.0 1.0 2 5
+ 0.707308 5 0 ack 40 ------- 1 9.0 1.0 2 5
- 0.707308 5 0 ack 40 ------- 1 9.0 1.0 2 5
r 0.709308 5 0 ack 40 ------- 1 9.0 1.0 1 4
h 0.709308 0 10 ack 40 ------- 1 9.0 1.0 1 4
r 0.717628 5 0 ack 40 ------- 1 9.0 1.0 2 5
h 0.717628 0 10 ack 40 ------- 1 9.0 1.0 2 5
+ 0.749308 0 10 ack 40 ------- 1 9.0 1.0 1 4
- 0.749308 0 10 ack 40 ------- 1 9.0 1.0 1 4
d 0.749312 4 10 ack 40 ------- 1 9.0 1.0 1 4
d 0.749312 3 10 ack 40 ------- 1 9.0 1.0 1 4
d 0.749312 2 10 ack 40 ------- 1 9.0 1.0 1 4
+ 0.757628 0 10 ack 40 ------- 1 9.0 1.0 2 5
- 0.757628 0 10 ack 40 ------- 1 9.0 1.0 2 5
d 0.757632 4 10 ack 40 ------- 1 9.0 1.0 2 5
d 0.757632 3 10 ack 40 ------- 1 9.0 1.0 2 5
d 0.757632 2 10 ack 40 ------- 1 9.0 1.0 2 5
r 0.789312 10 1 ack 40 ------- 1 9.0 1.0 1 4
h 0.789312 1 10 tcp 1040 ------- 1 1.0 9.0 3 6
h 0.789312 1 10 tcp 1040 ------- 1 1.0 9.0 4 7
r 0.797632 10 1 ack 40 ------- 1 9.0 1.0 2 5
h 0.797632 1 10 tcp 1040 ------- 1 1.0 9.0 5 8
h 0.797632 1 10 tcp 1040 ------- 1 1.0 9.0 6 9
+ 0.829312 1 10 tcp 1040 ------- 1 1.0 9.0 3 6
- 0.829312 1 10 tcp 1040 ------- 1 1.0 9.0 3 6
+ 0.829312 1 10 tcp 1040 ------- 1 1.0 9.0 4 7
d 0.829316 4 10 tcp 1040 ------- 1 1.0 9.0 3 6
d 0.829316 3 10 tcp 1040 ------- 1 1.0 9.0 3 6
d 0.829316 2 10 tcp 1040 ------- 1 1.0 9.0 3 6
- 0.833728 1 10 tcp 1040 ------- 1 1.0 9.0 4 7
d 0.833732 4 10 tcp 1040 ------- 1 1.0 9.0 4 7
d 0.833732 3 10 tcp 1040 ------- 1 1.0 9.0 4 7
d 0.833732 2 10 tcp 1040 ------- 1 1.0 9.0 4 7
+ 0.837632 1 10 tcp 1040 ------- 1 1.0 9.0 5 8
+ 0.837632 1 10 tcp 1040 ------- 1 1.0 9.0 6 9
- 0.838144 1 10 tcp 1040 ------- 1 1.0 9.0 5 8
d 0.838148 4 10 tcp 1040 ------- 1 1.0 9.0 5 8
d 0.838148 3 10 tcp 1040 ------- 1 1.0 9.0 5 8
d 0.838148 2 10 tcp 1040 ------- 1 1.0 9.0 5 8
- 0.84256 1 10 tcp 1040 ------- 1 1.0 9.0 6 9
d 0.842564 4 10 tcp 1040 ------- 1 1.0 9.0 6 9
d 0.842564 3 10 tcp 1040 ------- 1 1.0 9.0 6 9
d 0.842564 2 10 tcp 1040 ------- 1 1.0 9.0 6 9
r 0.869316 10 0 tcp 1040 ------- 1 1.0 9.0 3 6
+ 0.869316 0 5 tcp 1040 ------- 1 1.0 9.0 3 6
- 0.869316 0 5 tcp 1040 ------- 1 1.0 9.0 3 6
r 0.873732 10 0 tcp 1040 ------- 1 1.0 9.0 4 7
+ 0.873732 0 5 tcp 1040 ------- 1 1.0 9.0 4 7
- 0.877636 0 5 tcp 1040 ------- 1 1.0 9.0 4 7
r 0.878148 10 0 tcp 1040 ------- 1 1.0 9.0 5 8
+ 0.878148 0 5 tcp 1040 ------- 1 1.0 9.0 5 8
r 0.882564 10 0 tcp 1040 ------- 1 1.0 9.0 6 9
+ 0.882564 0 5 tcp 1040 ------- 1 1.0 9.0 6 9
- 0.885956 0 5 tcp 1040 ------- 1 1.0 9.0 5 8
r 0.887636 0 5 tcp 1040 ------- 1 1.0 9.0 3 6
h 0.887636 5 11 tcp 1040 ------- 1 1.0 9.0 3 6
- 0.894276 0 5 tcp 1040 ------- 1 1.0 9.0 6 9
r 0.895956 0 5 tcp 1040 ------- 1 1.0 9.0 4 7
h 0.895956 5 11 tcp 1040 ------- 1 1.0 9.0 4 7
r 0.904276 0 5 tcp 1040 ------- 1 1.0 9.0 5 8
h 0.904276 5 11 tcp 1040 ------- 1 1.0 9.0 5 8
r 0.912596 0 5 tcp 1040 ------- 1 1.0 9.0 6 9
h 0.912596 5 11 tcp 1040 ------- 1 1.0 9.0 6 9
+ 0.927636 5 11 tcp 1040 ------- 1 1.0 9.0 3 6
- 0.927636 5 11 tcp 1040 ------- 1 1.0 9.0 3 6
d 0.92764 8 11 tcp 1040 ------- 1 1.0 9.0 3 6
d 0.92764 7 11 tcp 1040 ------- 1 1.0 9.0 3 6
d 0.92764 6 11 tcp 1040 ------- 1 1.0 9.0 3 6
+ 0.935956 5 11 tcp 1040 ------- 1 1.0 9.0 4 7
- 0.935956 5 11 tcp 1040 ------- 1 1.0 9.0 4 7
d 0.93596 8 11 tcp 1040 ------- 1 1.0 9.0 4 7
d 0.93596 7 11 tcp 1040 ------- 1 1.0 9.0 4 7
d 0.93596 6 11 tcp 1040 ------- 1 1.0 9.0 4 7
+ 0.944276 5 11 tcp 1040 ------- 1 1.0 9.0 5 8
- 0.944276 5 11 tcp 1040 ------- 1 1.0 9.0 5 8
d 0.94428 8 11 tcp 1040 ------- 1 1.0 9.0 5 8
d 0.94428 7 11 tcp 1040 ------- 1 1.0 9.0 5 8
d 0.94428 6 11 tcp 1040 ------- 1 1.0 9.0 5 8
+ 0.952596 5 11 tcp 1040 ------- 1 1.0 9.0 6 9
- 0.952596 5 11 tcp 1040 ------- 1 1.0 9.0 6 9
d 0.9526 8 11 tcp 1040 ------- 1 1.0 9.0 6 9
d 0.9526 7 11 tcp 1040 ------- 1 1.0 9.0 6 9
d 0.9526 6 11 tcp 1040 ------- 1 1.0 9.0 6 9
r 0.96764 11 9 tcp 1040 ------- 1 1.0 9.0 3 6
h 0.96764 9 11 ack 40 ------- 1 9.0 1.0 3 10
r 0.97596 11 9 tcp 1040 ------- 1 1.0 9.0 4 7
h 0.97596 9 11 ack 40 ------- 1 9.0 1.0 4 11
r 0.98428 11 9 tcp 1040 ------- 1 1.0 9.0 5 8
h 0.98428 9 11 ack 40 ------- 1 9.0 1.0 5 12
r 0.9926 11 9 tcp 1040 ------- 1 1.0 9.0 6 9
h 0.9926 9 11 ack 40 ------- 1 9.0 1.0 6 13
+ 1.00764 9 11 ack 40 ------- 1 9.0 1.0 3 10
- 1.00764 9 11 ack 40 ------- 1 9.0 1.0 3 10
d 1.007644 8 11 ack 40 ------- 1 9.0 1.0 3 10
d 1.007644 7 11 ack 40 ------- 1 9.0 1.0 3 10
d 1.007644 6 11 ack 40 ------- 1 9.0 1.0 3 10
+ 1.01596 9 11 ack 40 ------- 1 9.0 1.0 4 11
- 1.01596 9 11 ack 40 ------- 1 9.0 1.0 4 11
d 1.015964 8 11 ack 40 ------- 1 9.0 1.0 4 11
d 1.015964 7 11 ack 40 ------- 1 9.0 1.0 4 11
d 1.015964 6 11 ack 40 ------- 1 9.0 1.0 4 11
+ 1.02428 9 11 ack 40 ------- 1 9.0 1.0 5 12
- 1.02428 9 11 ack 40 ------- 1 9.0 1.0 5 12
d 1.024284 8 11 ack 40 ------- 1 9.0 1.0 5 12
d 1.024284 7 11 ack 40 ------- 1 9.0 1.0 5 12
d 1.024284 6 11 ack 40 ------- 1 9.0 1.0 5 12
+ 1.0326 9 11 ack 40 ------- 1 9.0 1.0 6 13
- 1.0326 9 11 ack 40 ------- 1 9.0 1.0 6 13
d 1.032604 8 11 ack 40 ------- 1 9.0 1.0 6 13
d 1.032604 7 11 ack 40 ------- 1 9.0 1.0 6 13
d 1.032604 6 11 ack 40 ------- 1 9.0 1.0 6 13
r 1.047644 11 5 ack 40 ------- 1 9.0 1.0 3 10
+ 1.047644 5 0 ack 40 ------- 1 9.0 1.0 3 10
- 1.047644 5 0 ack 40 ------- 1 9.0 1.0 3 10
r 1.055964 11 5 ack 40 ------- 1 9.0 1.0 4 11
+ 1.055964 5 0 ack 40 ------- 1 9.0 1.0 4 11
- 1.055964 5 0 ack 40 ------- 1 9.0 1.0 4 11
r 1.057964 5 0 ack 40 ------- 1 9.0 1.0 3 10
h 1.057964 0 10 ack 40 ------- 1 9.0 1.0 3 10
r 1.064284 11 5 ack 40 ------- 1 9.0 1.0 5 12
+ 1.064284 5 0 ack 40 ------- 1 9.0 1.0 5 12
- 1.064284 5 0 ack 40 ------- 1 9.0 1.0 5 12
r 1.066284 5 0 ack 40 ------- 1 9.0 1.0 4 11
h 1.066284 0 10 ack 40 ------- 1 9.0 1.0 4 11
r 1.072604 11 5 ack 40 ------- 1 9.0 1.0 6 13
+ 1.072604 5 0 ack 40 ------- 1 9.0 1.0 6 13
- 1.072604 5 0 ack 40 ------- 1 9.0 1.0 6 13
r 1.074604 5 0 ack 40 ------- 1 9.0 1.0 5 12
h 1.074604 0 10 ack 40 ------- 1 9.0 1.0 5 12
r 1.082924 5 0 ack 40 ------- 1 9.0 1.0 6 13
h 1.082924 0 10 ack 40 ------- 1 9.0 1.0 6 13
+ 1.097964 0 10 ack 40 ------- 1 9.0 1.0 3 10
- 1.097964 0 10 ack 40 ------- 1 9.0 1.0 3 10
d 1.097968 4 10 ack 40 ------- 1 9.0 1.0 3 10
d 1.097968 3 10 ack 40 ------- 1 9.0 1.0 3 10
d 1.097968 2 10 ack 40 ------- 1 9.0 1.0 3 10
+ 1.106284 0 10 ack 40 ------- 1 9.0 1.0 4 11
- 1.106284 0 10 ack 40 ------- 1 9.0 1.0 4 11
d 1.106288 4 10 ack 40 ------- 1 9.0 1.0 4 11
d 1.106288 3 10 ack 40 ------- 1 9.0 1.0 4 11
d 1.106288 2 10 ack 40 ------- 1 9.0 1.0 4 11
+ 1.114604 0 10 ack 40 ------- 1 9.0 1.0 5 12
- 1.114604 0 10 ack 40 ------- 1 9.0 1.0 5 12
d 1.114608 4 10 ack 40 ------- 1 9.0 1.0 5 12
d 1.114608 3 10 ack 40 ------- 1 9.0 1.0 5 12
d 1.114608 2 10 ack 40 ------- 1 9.0 1.0 5 12
+ 1.122924 0 10 ack 40 ------- 1 9.0 1.0 6 13
- 1.122924 0 10 ack 40 ------- 1 9.0 1.0 6 13
d 1.122928 4 10 ack 40 ------- 1 9.0 1.0 6 13
d 1.122928 3 10 ack 40 ------- 1 9.0 1.0 6 13
d 1.122928 2 10 ack 40 ------- 1 9.0 1.0 6 13
r 1.137968 10 1 ack 40 ------- 1 9.0 1.0 3 10
h 1.137968 1 10 tcp 1040 ------- 1 1.0 9.0 7 14
h 1.137968 1 10 tcp 1040 ------- 1 1.0 9.0 8 15
r 1.146288 10 1 ack 40 ------- 1 9.0 1.0 4 11
h 1.146288 1 10 tcp 1040 ------- 1 1.0 9.0 9 16
h 1.146288 1 10 tcp 1040 ------- 1 1.0 9.0 10 17
r 1.154608 10 1 ack 40 ------- 1 9.0 1.0 5 12
h 1.154608 1 10 tcp 1040 ------- 1 1.0 9.0 11 18
h 1.154608 1 10 tcp 1040 ------- 1 1.0 9.0 12 19
r 1.162928 10 1 ack 40 ------- 1 9.0 1.0 6 13
h 1.162928 1 10 tcp 1040 ------- 1 1.0 9.0 13 20
h 1.162928 1 10 tcp 1040 ------- 1 1.0 9.0 14 21
+ 1.177968 1 10 tcp 1040 ------- 1 1.0 9.0 7 14
- 1.177968 1 10 tcp 1040 ------- 1 1.0 9.0 7 14
+ 1.177968 1 10 tcp 1040 ------- 1 1.0 9.0 8 15
d 1.177972 4 10 tcp 1040 ------- 1 1.0 9.0 7 14
d 1.177972 3 10 tcp 1040 ------- 1 1.0 9.0 7 14
d 1.177972 2 10 tcp 1040 ------- 1 1.0 9.0 7 14
- 1.182384 1 10 tcp 1040 ------- 1 1.0 9.0 8 15
d 1.182388 4 10 tcp 1040 ------- 1 1.0 9.0 8 15
d 1.182388 3 10 tcp 1040 ------- 1 1.0 9.0 8 15
d 1.182388 2 10 tcp 1040 ------- 1 1.0 9.0 8 15
+ 1.186288 1 10 tcp 1040 ------- 1 1.0 9.0 9 16
+ 1.186288 1 10 tcp 1040 ------- 1 1.0 9.0 10 17
- 1.1868 1 10 tcp 1040 ------- 1 1.0 9.0 9 16
d 1.186804 4 10 tcp 1040 ------- 1 1.0 9.0 9 16
d 1.186804 3 10 tcp 1040 ------- 1 1.0 9.0 9 16
d 1.186804 2 10 tcp 1040 ------- 1 1.0 9.0 9 16
- 1.191216 1 10 tcp 1040 ------- 1 1.0 9.0 10 17
d 1.19122 4 10 tcp 1040 ------- 1 1.0 9.0 10 17
d 1.19122 3 10 tcp 1040 ------- 1 1.0 9.0 10 17
d 1.19122 2 10 tcp 1040 ------- 1 1.0 9.0 10 17
+ 1.194608 1 10 tcp 1040 ------- 1 1.0 9.0 11 18
+ 1.194608 1 10 tcp 1040 ------- 1 1.0 9.0 12 19
- 1.195632 1 10 tcp 1040 ------- 1 1.0 9.0 11 18
d 1.195636 4 10 tcp 1040 ------- 1 1.0 9.0 11 18
d 1.195636 3 10 tcp 1040 ------- 1 1.0 9.0 11 18
d 1.195636 2 10 tcp 1040 ------- 1 1.0 9.0 11 18
- 1.200048 1 10 tcp 1040 ------- 1 1.0 9.0 12 19
d 1.200052 4 10 tcp 1040 ------- 1 1.0 9.0 12 19
d 1.200052 3 10 tcp 1040 ------- 1 1.0 9.0 12 19
d 1.200052 2 10 tcp 1040 ------- 1 1.0 9.0 12 19
+ 1.202928 1 10 tcp 1040 ------- 1 1.0 9.0 13 20
+ 1.202928 1 10 tcp 1040 ------- 1 1.0 9.0 14 21
- 1.204464 1 10 tcp 1040 ------- 1 1.0 9.0 13 20
d 1.204468 4 10 tcp 1040 ------- 1 1.0 9.0 13 20
d 1.204468 3 10 tcp 1040 ------- 1 1.0 9.0 13 20
d 1.204468 2 10 tcp 1040 ------- 1 1.0 9.0 13 20
- 1.20888 1 10 tcp 1040 ------- 1 1.0 9.0 14 21
d 1.208884 4 10 tcp 1040 ------- 1 1.0 9.0 14 21
d 1.208884 3 10 tcp 1040 ------- 1 1.0 9.0 14 21
d 1.208884 2 10 tcp 1040 ------- 1 1.0 9.0 14 21
r 1.217972 10 0 tcp 1040 ------- 1 1.0 9.0 7 14
+ 1.217972 0 5 tcp 1040 ------- 1 1.0 9.0 7 14
- 1.217972 0 5 tcp 1040 ------- 1 1.0 9.0 7 14
r 1.222388 10 0 tcp 1040 ------- 1 1.0 9.0 8 15
+ 1.222388 0 5 tcp 1040 ------- 1 1.0 9.0 8 15
- 1.226292 0 5 tcp 1040 ------- 1 1.0 9.0 8 15
r 1.226804 10 0 tcp 1040 ------- 1 1.0 9.0 9 16
+ 1.226804 0 5 tcp 1040 ------- 1 1.0 9.0 9 16
r 1.23122 10 0 tcp 1040 ------- 1 1.0 9.0 10 17
+ 1.23122 0 5 tcp 1040 ------- 1 1.0 9.0 10 17
- 1.234612 0 5 tcp 1040 ------- 1 1.0 9.0 9 16
r 1.235636 10 0 tcp 1040 ------- 1 1.0 9.0 11 18
+ 1.235636 0 5 tcp 1040 ------- 1 1.0 9.0 11 18
r 1.236292 0 5 tcp 1040 ------- 1 1.0 9.0 7 14
h 1.236292 5 11 tcp 1040 ------- 1 1.0 9.0 7 14
r 1.240052 10 0 tcp 1040 ------- 1 1.0 9.0 12 19
+ 1.240052 0 5 tcp 1040 ------- 1 1.0 9.0 12 19
- 1.242932 0 5 tcp 1040 ------- 1 1.0 9.0 10 17
r 1.244468 10 0 tcp 1040 ------- 1 1.0 9.0 13 20
+ 1.244468 0 5 tcp 1040 ------- 1 1.0 9.0 13 20
r 1.244612 0 5 tcp 1040 ------- 1 1.0 9.0 8 15
h 1.244612 5 11 tcp 1040 ------- 1 1.0 9.0 8 15
r 1.248884 10 0 tcp 1040 ------- 1 1.0 9.0 14 21
+ 1.248884 0 5 tcp 1040 ------- 1 1.0 9.0 14 21
- 1.251252 0 5 tcp 1040 ------- 1 1.0 9.0 11 18
r 1.252932 0 5 tcp 1040 ------- 1 1.0 9.0 9 16
h 1.252932 5 11 tcp 1040 ------- 1 1.0 9.0 9 16
- 1.259572 0 5 tcp 1040 ------- 1 1.0 9.0 12 19
r 1.261252 0 5 tcp 1040 ------- 1 1.0 9.0 10 17
h 1.261252 5 11 tcp 1040 ------- 1 1.0 9.0 10 17
- 1.267892 0 5 tcp 1040 ------- 1 1.0 9.0 13 20
r 1.269572 0 5 tcp 1040 ------- 1 1.0 9.0 11 18
h 1.269572 5 11 tcp 1040 ------- 1 1.0 9.0 11 18
- 1.276212 0 5 tcp 1040 ------- 1 1.0 9.0 14 21
+ 1.276292 5 11 tcp 1040 ------- 1 1.0 9.0 7 14
- 1.276292 5 11 tcp 1040 ------- 1 1.0 9.0 7 14
d 1.276296 8 11 tcp 1040 ------- 1 1.0 9.0 7 14
d 1.276296 7 11 tcp 1040 ------- 1 1.0 9.0 7 14
d 1.276296 6 11 tcp 1040 ------- 1 1.0 9.0 7 14
r 1.277892 0 5 tcp 1040 ------- 1 1.0 9.0 12 19
h 1.277892 5 11 tcp 1040 ------- 1 1.0 9.0 12 19
+ 1.284612 5 11 tcp 1040 ------- 1 1.0 9.0 8 15
- 1.284612 5 11 tcp 1040 ------- 1 1.0 9.0 8 15
d 1.284616 8 11 tcp 1040 ------- 1 1.0 9.0 8 15
d 1.284616 7 11 tcp 1040 ------- 1 1.0 9.0 8 15
d 1.284616 6 11 tcp 1040 ------- 1 1.0 9.0 8 15
r 1.286212 0 5 tcp 1040 ------- 1 1.0 9.0 13 20
h 1.286212 5 11 tcp 1040 ------- 1 1.0 9.0 13 20
+ 1.292932 5 11 tcp 1040 ------- 1 1.0 9.0 9 16
- 1.292932 5 11 tcp 1040 ------- 1 1.0 9.0 9 16
d 1.292936 8 11 tcp 1040 ------- 1 1.0 9.0 9 16
d 1.292936 7 11 tcp 1040 ------- 1 1.0 9.0 9 16
d 1.292936 6 11 tcp 1040 ------- 1 1.0 9.0 9 16
r 1.294532 0 5 tcp 1040 ------- 1 1.0 9.0 14 21
h 1.294532 5 11 tcp 1040 ------- 1 1.0 9.0 14 21
+ 1.301252 5 11 tcp 1040 ------- 1 1.0 9.0 10 17
- 1.301252 5 11 tcp 1040 ------- 1 1.0 9.0 10 17
d 1.301256 8 11 tcp 1040 ------- 1 1.0 9.0 10 17
d 1.301256 7 11 tcp 1040 ------- 1 1.0 9.0 10 17
d 1.301256 6 11 tcp 1040 ------- 1 1.0 9.0 10 17
+ 1.309572 5 11 tcp 1040 ------- 1 1.0 9.0 11 18
- 1.309572 5 11 tcp 1040 ------- 1 1.0 9.0 11 18
d 1.309576 8 11 tcp 1040 ------- 1 1.0 9.0 11 18
d 1.309576 7 11 tcp 1040 ------- 1 1.0 9.0 11 18
d 1.309576 6 11 tcp 1040 ------- 1 1.0 9.0 11 18
r 1.316296 11 9 tcp 1040 ------- 1 1.0 9.0 7 14
h 1.316296 9 11 ack 40 ------- 1 9.0 1.0 7 22
+ 1.317892 5 11 tcp 1040 ------- 1 1.0 9.0 12 19
- 1.317892 5 11 tcp 1040 ------- 1 1.0 9.0 12 19
d 1.317896 8 11 tcp 1040 ------- 1 1.0 9.0 12 19
d 1.317896 7 11 tcp 1040 ------- 1 1.0 9.0 12 19
d 1.317896 6 11 tcp 1040 ------- 1 1.0 9.0 12 19
r 1.324616 11 9 tcp 1040 ------- 1 1.0 9.0 8 15
h 1.324616 9 11 ack 40 ------- 1 9.0 1.0 8 23
+ 1.326212 5 11 tcp 1040 ------- 1 1.0 9.0 13 20
- 1.326212 5 11 tcp 1040 ------- 1 1.0 9.0 13 20
d 1.326216 8 11 tcp 1040 ------- 1 1.0 9.0 13 20
d 1.326216 7 11 tcp 1040 ------- 1 1.0 9.0 13 20
d 1.326216 6 11 tcp 1040 ------- 1 1.0 9.0 13 20
r 1.332936 11 9 tcp 1040 ------- 1 1.0 9.0 9 16
h 1.332936 9 11 ack 40 ------- 1 9.0 1.0 9 24
+ 1.334532 5 11 tcp 1040 ------- 1 1.0 9.0 14 21
- 1.334532 5 11 tcp 1040 ------- 1 1.0 9.0 14 21
d 1.334536 8 11 tcp 1040 ------- 1 1.0 9.0 14 21
d 1.334536 7 11 tcp 1040 ------- 1 1.0 9.0 14 21
d 1.334536 6 11 tcp 1040 ------- 1 1.0 9.0 14 21
r 1.341256 11 9 tcp 1040 ------- 1 1.0 9.0 10 17
h 1.341256 9 11 ack 40 ------- 1 9.0 1.0 10 25
r 1.349576 11 9 tcp 1040 ------- 1 1.0 9.0 11 18
h 1.349576 9 11 ack 40 ------- 1 9.0 1.0 11 26
+ 1.356296 9 11 ack 40 ------- 1 9.0 1.0 7 22
- 1.356296 9 11 ack 40 ------- 1 9.0 1.0 7 22
d 1.3563 8 11 ack 40 ------- 1 9.0 1.0 7 22
d 1.3563 7 11 ack 40 ------- 1 9.0 1.0 7 22
d 1.3563 6 11 ack 40 ------- 1 9.0 1.0 7 22
r 1.357896 11 9 tcp 1040 ------- 1 1.0 9.0 12 19
h 1.357896 9 11 ack 40 ------- 1 9.0 1.0 12 27
+ 1.364616 9 11 ack 40 ------- 1 9.0 1.0 8 23
- 1.364616 9 11 ack 40 ------- 1 9.0 1.0 8 23
d 1.36462 8 11 ack 40 ------- 1 9.0 1.0 8 23
d 1.36462 7 11 ack 40 ------- 1 9.0 1.0 8 23
d 1.36462 6 11 ack 40 ------- 1 9.0 1.0 8 23
r 1.366216 11 9 tcp 1040 ------- 1 1.0 9.0 13 20
h 1.366216 9 11 ack 40 ------- 1 9.0 1.0 13 28
+ 1.372936 9 11 ack 40 ------- 1 9.0 1.0 9 24
- 1.372936 9 11 ack 40 ------- 1 9.0 1.0 9 24
d 1.37294 8 11 ack 40 ------- 1 9.0 1.0 9 24
d 1.37294 7 11 ack 40 ------- 1 9.0 1.0 9 24
d 1.37294 6 11 ack 40 ------- 1 9.0 1.0 9 24
r 1.374536 11 9 tcp 1040 ------- 1 1.0 9.0 14 21
h 1.374536 9 11 ack 40 ------- 1 9.0 1.0 14 29
+ 1.381256 9 11 ack 40 ------- 1 9.0 1.0 10 25
- 1.381256 9 11 ack 40 ------- 1 9.0 1.0 10 25
d 1.38126 8 11 ack 40 ------- 1 9.0 1.0 10 25
d 1.38126 7 11 ack 40 ------- 1 9.0 1.0 10 25
d 1.38126 6 11 ack 40 ------- 1 9.0 1.0 10 25
+ 1.389576 9 11 ack 40 ------- 1 9.0 1.0 11 26
- 1.389576 9 11 ack 40 ------- 1 9.0 1.0 11 26
d 1.38958 8 11 ack 40 ------- 1 9.0 1.0 11 26
d 1.38958 7 11 ack 40 ------- 1 9.0 1.0 11 26
d 1.38958 6 11 ack 40 ------- 1 9.0 1.0 11 26
r 1.3963 11 5 ack 40 ------- 1 9.0 1.0 7 22
+ 1.3963 5 0 ack 40 ------- 1 9.0 1.0 7 22
- 1.3963 5 0 ack 40 ------- 1 9.0 1.0 7 22
+ 1.397896 9 11 ack 40 ------- 1 9.0 1.0 12 27
- 1.397896 9 11 ack 40 ------- 1 9.0 1.0 12 27
d 1.3979 8 11 ack 40 ------- 1 9.0 1.0 12 27
d 1.3979 7 11 ack 40 ------- 1 9.0 1.0 12 27
d 1.3979 6 11 ack 40 ------- 1 9.0 1.0 12 27
r 1.40462 11 5 ack 40 ------- 1 9.0 1.0 8 23
+ 1.40462 5 0 ack 40 ------- 1 9.0 1.0 8 23
- 1.40462 5 0 ack 40 ------- 1 9.0 1.0 8 23
+ 1.406216 9 11 ack 40 ------- 1 9.0 1.0 13 28
- 1.406216 9 11 ack 40 ------- 1 9.0 1.0 13 28
d 1.40622 8 11 ack 40 ------- 1 9.0 1.0 13 28
d 1.40622 7 11 ack 40 ------- 1 9.0 1.0 13 28
d 1.40622 6 11 ack 40 ------- 1 9.0 1.0 13 28
r 1.40662 5 0 ack 40 ------- 1 9.0 1.0 7 22
h 1.40662 0 10 ack 40 ------- 1 9.0 1.0 7 22
r 1.41294 11 5 ack 40 ------- 1 9.0 1.0 9 24
+ 1.41294 5 0 ack 40 ------- 1 9.0 1.0 9 24
- 1.41294 5 0 ack 40 ------- 1 9.0 1.0 9 24
+ 1.414536 9 11 ack 40 ------- 1 9.0 1.0 14 29
- 1.414536 9 11 ack 40 ------- 1 9.0 1.0 14 29
d 1.41454 8 11 ack 40 ------- 1 9.0 1.0 14 29
d 1.41454 7 11 ack 40 ------- 1 9.0 1.0 14 29
d 1.41454 6 11 ack 40 ------- 1 9.0 1.0 14 29
r 1.41494 5 0 ack 40 ------- 1 9.0 1.0 8 23
h 1.41494 0 10 ack 40 ------- 1 9.0 1.0 8 23
r 1.42126 11 5 ack 40 ------- 1 9.0 1.0 10 25
+ 1.42126 5 0 ack 40 ------- 1 9.0 1.0 10 25
- 1.42126 5 0 ack 40 ------- 1 9.0 1.0 10 25
r 1.42326 5 0 ack 40 ------- 1 9.0 1.0 9 24
h 1.42326 0 10 ack 40 ------- 1 9.0 1.0 9 24
r 1.42958 11 5 ack 40 ------- 1 9.0 1.0 11 26
+ 1.42958 5 0 ack 40 ------- 1 9.0 1.0 11 26
- 1.42958 5 0 ack 40 ------- 1 9.0 1.0 11 26
r 1.43158 5 0 ack 40 ------- 1 9.0 1.0 10 25
h 1.43158 0 10 ack 40 ------- 1 9.0 1.0 10 25
r 1.4379 11 5 ack 40 ------- 1 9.0 1.0 12 27
+ 1.4379 5 0 ack 40 ------- 1 9.0 1.0 12 27
- 1.4379 5 0 ack 40 ------- 1 9.0 1.0 12 27
r 1.4399 5 0 ack 40 ------- 1 9.0 1.0 11 26
h 1.4399 0 10 ack 40 ------- 1 9.0 1.0 11 26
r 1.44622 11 5 ack 40 ------- 1 9.0 1.0 13 28
+ 1.44622 5 0 ack 40 ------- 1 9.0 1.0 13 28
- 1.44622 5 0 ack 40 ------- 1 9.0 1.0 13 28
+ 1.44662 0 10 ack 40 ------- 1 9.0 1.0 7 22
- 1.44662 0 10 ack 40 ------- 1 9.0 1.0 7 22
d 1.446624 4 10 ack 40 ------- 1 9.0 1.0 7 22
d 1.446624 3 10 ack 40 ------- 1 9.0 1.0 7 22
d 1.446624 2 10 ack 40 ------- 1 9.0 1.0 7 22
r 1.44822 5 0 ack 40 ------- 1 9.0 1.0 12 27
h 1.44822 0 10 ack 40 ------- 1 9.0 1.0 12 27
r 1.45454 11 5 ack 40 ------- 1 9.0 1.0 14 29
+ 1.45454 5 0 ack 40 ------- 1 9.0 1.0 14 29
- 1.45454 5 0 ack 40 ------- 1 9.0 1.0 14 29
+ 1.45494 0 10 ack 40 ------- 1 9.0 1.0 8 23
- 1.45494 0 10 ack 40 ------- 1 9.0 1.0 8 23
d 1.454944 4 10 ack 40 ------- 1 9.0 1.0 8 23
d 1.454944 3 10 ack 40 ------- 1 9.0 1.0 8 23
d 1.454944 2 10 ack 40 ------- 1 9.0 1.0 8 23
r 1.45654 5 0 ack 40 ------- 1 9.0 1.0 13 28
h 1.45654 0 10 ack 40 ------- 1 9.0 1.0 13 28
+ 1.46326 0 10 ack 40 ------- 1 9.0 1.0 9 24
- 1.46326 0 10 ack 40 ------- 1 9.0 1.0 9 24
d 1.463264 4 10 ack 40 ------- 1 9.0 1.0 9 24
d 1.463264 3 10 ack 40 ------- 1 9.0 1.0 9 24
d 1.463264 2 10 ack 40 ------- 1 9.0 1.0 9 24
r 1.46486 5 0 ack 40 ------- 1 9.0 1.0 14 29
h 1.46486 0 10 ack 40 ------- 1 9.0 1.0 14 29
+ 1.47158 0 10 ack 40 ------- 1 9.0 1.0 10 25
- 1.47158 0 10 ack 40 ------- 1 9.0 1.0 10 25
d 1.471584 4 10 ack 40 ------- 1 9.0 1.0 10 25
d 1.471584 3 10 ack 40 ------- 1 9.0 1.0 10 25
d 1.471584 2 10 ack 40 ------- 1 9.0 1.0 10 25
+ 1.4799 0 10 ack 40 ------- 1 9.0 1.0 11 26
- 1.4799 0 10 ack 40 ------- 1 9.0 1.0 11 26
d 1.479904 4 10 ack 40 ------- 1 9.0 1.0 11 26
d 1.479904 3 10 ack 40 ------- 1 9.0 1.0 11 26
d 1.479904 2 10 ack 40 ------- 1 9.0 1.0 11 26
r 1.486624 10 1 ack 40 ------- 1 9.0 1.0 7 22
h 1.486624 1 10 tcp 1040 ------- 1 1.0 9.0 15 30
h 1.486624 1 10 tcp 1040 ------- 1 1.0 9.0 16 31
+ 1.48822 0 10 ack 40 ------- 1 9.0 1.0 12 27
- 1.48822 0 10 ack 40 ------- 1 9.0 1.0 12 27
d 1.488224 4 10 ack 40 ------- 1 9.0 1.0 12 27
d 1.488224 3 10 ack 40 ------- 1 9.0 1.0 12 27
d 1.488224 2 10 ack 40 ------- 1 9.0 1.0 12 27
r 1.494944 10 1 ack 40 ------- 1 9.0 1.0 8 23
h 1.494944 1 10 tcp 1040 ------- 1 1.0 9.0 17 32
h 1.494944 1 10 tcp 1040 ------- 1 1.0 9.0 18 33
+ 1.49654 0 10 ack 40 ------- 1 9.0 1.0 13 28
- 1.49654 0 10 ack 40 ------- 1 9.0 1.0 13 28
d 1.496544 4 10 ack 40 ------- 1 9.0 1.0 13 28
d 1.496544 3 10 ack 40 ------- 1 9.0 1.0 13 28
d 1.496544 2 10 ack 40 ------- 1 9.0 1.0 13 28
r 1.503264 10 1 ack 40 ------- 1 9.0 1.0 9 24
h 1.503264 1 10 tcp 1040 ------- 1 1.0 9.0 19 34
h 1.503264 1 10 tcp 1040 ------- 1 1.0 9.0 20 35
+ 1.50486 0 10 ack 40 ------- 1 9.0 1.0 14 29
- 1.50486 0 10 ack 40 ------- 1 9.0 1.0 14 29
d 1.504864 4 10 ack 40 ------- 1 9.0 1.0 14 29
d 1.504864 3 10 ack 40 ------- 1 9.0 1.0 14 29
d 1.504864 2 10 ack 40 ------- 1 9.0 1.0 14 29
r 1.511584 10 1 ack 40 ------- 1 9.0 1.0 10 25
h 1.511584 1 10 tcp 1040 ------- 1 1.0 9.0 21 36
h 1.511584 1 10 tcp 1040 ------- 1 1.0 9.0 22 37
r 1.519904 10 1 ack 40 ------- 1 9.0 1.0 11 26
h 1.519904 1 10 tcp 1040 ------- 1 1.0 9.0 23 38
h 1.519904 1 10 tcp 1040 ------- 1 1.0 9.0 24 39
+ 1.526624 1 10 tcp 1040 ------- 1 1.0 9.0 15 30
- 1.526624 1 10 tcp 1040 ------- 1 1.0 9.0 15 30
+ 1.526624 1 10 tcp 1040 ------- 1 1.0 9.0 16 31
d 1.526628 4 10 tcp 1040 ------- 1 1.0 9.0 15 30
d 1.526628 3 10 tcp 1040 ------- 1 1.0 9.0 15 30
d 1.526628 2 10 tcp 1040 ------- 1 1.0 9.0 15 30
r 1.528224 10 1 ack 40 ------- 1 9.0 1.0 12 27
h 1.528224 1 10 tcp 1040 ------- 1 1.0 9.0 25 40
h 1.528224 1 10 tcp 1040 ------- 1 1.0 9.0 26 41
- 1.53104 1 10 tcp 1040 ------- 1 1.0 9.0 16 31
d 1.531044 4 10 tcp 1040 ------- 1 1.0 9.0 16 31
d 1.531044 3 10 tcp 1040 ------- 1 1.0 9.0 16 31
d 1.531044 2 10 tcp 1040 ------- 1 1.0 9.0 16 31
+ 1.534944 1 10 tcp 1040 ------- 1 1.0 9.0 17 32
+ 1.534944 1 10 tcp 1040 ------- 1 1.0 9.0 18 33
- 1.535456 1 10 tcp 1040 ------- 1 1.0 9.0 17 32
d 1.53546 4 10 tcp 1040 ------- 1 1.0 9.0 17 32
d 1.53546 3 10 tcp 1040 ------- 1 1.0 9.0 17 32
d 1.53546 2 10 tcp 1040 ------- 1 1.0 9.0 17 32
r 1.536544 10 1 ack 40 ------- 1 9.0 1.0 13 28
h 1.536544 1 10 tcp 1040 ------- 1 1.0 9.0 27 42
h 1.536544 1 10 tcp 1040 ------- 1 1.0 9.0 28 43
- 1.539872 1 10 tcp 1040 ------- 1 1.0 9.0 18 33
d 1.539876 4 10 tcp 1040 ------- 1 1.0 9.0 18 33
d 1.539876 3 10 tcp 1040 ------- 1 1.0 9.0 18 33
d 1.539876 2 10 tcp 1040 ------- 1 1.0 9.0 18 33
+ 1.543264 1 10 tcp 1040 ------- 1 1.0 9.0 19 34
+ 1.543264 1 10 tcp 1040 ------- 1 1.0 9.0 20 35
- 1.544288 1 10 tcp 1040 ------- 1 1.0 9.0 19 34
d 1.544292 4 10 tcp 1040 ------- 1 1.0 9.0 19 34
d 1.544292 3 10 tcp 1040 ------- 1 1.0 9.0 19 34
d 1.544292 2 10 tcp 1040 ------- 1 1.0 9.0 19 34
r 1.544864 10 1 ack 40 ------- 1 9.0 1.0 14 29
h 1.544864 1 10 tcp 1040 ------- 1 1.0 9.0 29 44
h 1.544864 1 10 tcp 1040 ------- 1 1.0 9.0 30 45
- 1.548704 1 10 tcp 1040 ------- 1 1.0 9.0 20 35
d 1.548708 4 10 tcp 1040 ------- 1 1.0 9.0 20 35
d 1.548708 3 10 tcp 1040 ------- 1 1.0 9.0 20 35
d 1.548708 2 10 tcp 1040 ------- 1 1.0 9.0 20 35
+ 1.551584 1 10 tcp 1040 ------- 1 1.0 9.0 21 36
+ 1.551584 1 10 tcp 1040 ------- 1 1.0 9.0 22 37
- 1.55312 1 10 tcp 1040 ------- 1 1.0 9.0 21 36
d 1.553124 4 10 tcp 1040 ------- 1 1.0 9.0 21 36
d 1.553124 3 10 tcp 1040 ------- 1 1.0 9.0 21 36
d 1.553124 2 10 tcp 1040 ------- 1 1.0 9.0 21 36
- 1.557536 1 10 tcp 1040 ------- 1 1.0 9.0 22 37
d 1.55754 4 10 tcp 1040 ------- 1 1.0 9.0 22 37
d 1.55754 3 10 tcp 1040 ------- 1 1.0 9.0 22 37
d 1.55754 2 10 tcp 1040 ------- 1 1.0 9.0 22 37
+ 1.559904 1 10 tcp 1040 ------- 1 1.0 9.0 23 38
+ 1.559904 1 10 tcp 1040 ------- 1 1.0 9.0 24 39
- 1.561952 1 10 tcp 1040 ------- 1 1.0 9.0 23 38
d 1.561956 4 10 tcp 1040 ------- 1 1.0 9.0 23 38
d 1.561956 3 10 tcp 1040 ------- 1 1.0 9.0 23 38
d 1.561956 2 10 tcp 1040 ------- 1 1.0 9.0 23 38
- 1.566368 1 10 tcp 1040 ------- 1 1.0 9.0 24 39
d 1.566372 4 10 tcp 1040 ------- 1 1.0 9.0 24 39
d 1.566372 3 10 tcp 1040 ------- 1 1.0 9.0 24 39
d 1.566372 2 10 tcp 1040 ------- 1 1.0 9.0 24 39
r 1.566628 10 0 tcp 1040 ------- 1 1.0 9.0 15 30
+ 1.566628 0 5 tcp 1040 ------- 1 1.0 9.0 15 30
- 1.566628 0 5 tcp 1040 ------- 1 1.0 9.0 15 30
+ 1.568224 1 10 tcp 1040 ------- 1 1.0 9.0 25 40
+ 1.568224 1 10 tcp 1040 ------- 1 1.0 9.0 26 41
- 1.570784 1 10 tcp 1040 ------- 1 1.0 9.0 25 40
d 1.570788 4 10 tcp 1040 ------- 1 1.0 9.0 25 40
d 1.570788 3 10 tcp 1040 ------- 1 1.0 9.0 25 40
d 1.570788 2 10 tcp 1040 ------- 1 1.0 9.0 25 40
r 1.571044 10 0 tcp 1040 ------- 1 1.0 9.0 16 31
+ 1.571044 0 5 tcp 1040 ------- 1 1.0 9.0 16 31
- 1.574948 0 5 tcp 1040 ------- 1 1.0 9.0 16 31
- 1.5752 1 10 tcp 1040 ------- 1 1.0 9.0 26 41
d 1.575204 4 10 tcp 1040 ------- 1 1.0 9.0 26 41
d 1.575204 3 10 tcp 1040 ------- 1 1.0 9.0 26 41
d 1.575204 2 10 tcp 1040 ------- 1 1.0 9.0 26 41
r 1.57546 10 0 tcp 1040 ------- 1 1.0 9.0 17 32
+ 1.57546 0 5 tcp 1040 ------- 1 1.0 9.0 17 32
+ 1.576544 1 10 tcp 1040 ------- 1 1.0 9.0 27 42
+ 1.576544 1 10 tcp 1040 ------- 1 1.0 9.0 28 43
- 1.579616 1 10 tcp 1040 ------- 1 1.0 9.0 27 42
d 1.57962 4 10 tcp 1040 ------- 1 1.0 9.0 27 42
d 1.57962 3 10 tcp 1040 ------- 1 1.0 9.0 27 42
d 1.57962 2 10 tcp 1040 ------- 1 1.0 9.0 27 42
r 1.579876 10 0 tcp 1040 ------- 1 1.0 9.0 18 33
+ 1.579876 0 5 tcp 1040 ------- 1 1.0 9.0 18 33
- 1.583268 0 5 tcp 1040 ------- 1 1.0 9.0 17 32
- 1.584032 1 10 tcp 1040 ------- 1 1.0 9.0 28 43
d 1.584036 4 10 tcp 1040 ------- 1 1.0 9.0 28 43
d 1.584036 3 10 tcp 1040 ------- 1 1.0 9.0 28 43
d 1.584036 2 10 tcp 1040 ------- 1 1.0 9.0 28 43
r 1.584292 10 0 tcp 1040 ------- 1 1.0 9.0 19 34
+ 1.584292 0 5 tcp 1040 ------- 1 1.0 9.0 19 34
+ 1.584864 1 10 tcp 1040 ------- 1 1.0 9.0 29 44
+ 1.584864 1 10 tcp 1040 ------- 1 1.0 9.0 30 45
r 1.584948 0 5 tcp 1040 ------- 1 1.0 9.0 15 30
h 1.584948 5 11 tcp 1040 ------- 1 1.0 9.0 15 30
- 1.588448 1 10 tcp 1040 ------- 1 1.0 9.0 29 44
d 1.588452 4 10 tcp 1040 ------- 1 1.0 9.0 29 44
d 1.588452 3 10 tcp 1040 ------- 1 1.0 9.0 29 44
d 1.588452 2 10 tcp 1040 ------- 1 1.0 9.0 29 44
r 1.588708 10 0 tcp 1040 ------- 1 1.0 9.0 20 35
+ 1.588708 0 5 tcp 1040 ------- 1 1.0 9.0 20 35
- 1.591588 0 5 tcp 1040 ------- 1 1.0 9.0 18 33
- 1.592864 1 10 tcp 1040 ------- 1 1.0 9.0 30 45
d 1.592868 4 10 tcp 1040 ------- 1 1.0 9.0 30 45
d 1.592868 3 10 tcp 1040 ------- 1 1.0 9.0 30 45
d 1.592868 2 10 tcp 1040 ------- 1 1.0 9.0 30 45
r 1.593124 10 0 tcp 1040 ------- 1 1.0 9.0 21 36
+ 1.593124 0 5 tcp 1040 ------- 1 1.0 9.0 21 36
r 1.593268 0 5 tcp 1040 ------- 1 1.0 9.0 16 31
h 1.593268 5 11 tcp 1040 ------- 1 1.0 9.0 16 31
r 1.59754 10 0 tcp 1040 ------- 1 1.0 9.0 22 37
+ 1.59754 0 5 tcp 1040 ------- 1 1.0 9.0 22 37
- 1.599908 0 5 tcp 1040 ------- 1 1.0 9.0 19 34
r 1.601588 0 5 tcp 1040 ------- 1 1.0 9.0 17 32
h 1.601588 5 11 tcp 1040 ------- 1 1.0 9.0 17 32
r 1.601956 10 0 tcp 1040 ------- 1 1.0 9.0 23 38
+ 1.601956 0 5 tcp 1040 ------- 1 1.0 9.0 23 38
r 1.606372 10 0 tcp 1040 ------- 1 1.0 9.0 24 39
+ 1.606372 0 5 tcp 1040 ------- 1 1.0 9.0 24 39
- 1.608228 0 5 tcp 1040 ------- 1 1.0 9.0 20 35
r 1.609908 0 5 tcp 1040 ------- 1 1.0 9.0 18 33